LAMMPS (22 Jul 2025 - Update 3)
OMP_NUM_THREADS environment is not set. Defaulting to 1 thread.
  using 1 OpenMP thread(s) per MPI task
Lattice spacing in x,y,z = 1.6795962 1.6795962 1.6795962
Created orthogonal box = (0 0 0) to (10.077577 10.077577 10.077577)
  1 by 1 by 1 MPI processor grid
Created 864 atoms
  using lattice units in orthogonal box = (0 0 0) to (10.077577 10.077577 10.077577)
  create_atoms CPU = 0.001 seconds
Generated 0 of 0 mixed pair_coeff terms from geometric mixing rule
Neighbor list info ...
  update: every = 1 steps, delay = 0 steps, check = yes
  max neighbors/atom: 2000, page size: 100000
  master list distance cutoff = 2.8
  ghost atom cutoff = 2.8
  binsize = 1.4, bins = 8 8 8
  1 neighbor lists, perpetual/occasional/extra = 1 0 0
  (1) pair lj/cut, perpetual
      attributes: half, newton on
      pair build: half/bin/atomonly/newton
      stencil: half/bin/3d
      bin: standard
Setting up Verlet run ...
  Unit style    : lj
  Current step  : 0
  Time step     : 0.005
Per MPI rank memory allocation (min/avg/max) = 3.174 | 3.174 | 3.174 Mbytes
   Step          Temp          E_pair         E_mol          TotEng         Press     
         0   0.75          -6.7733681      0             -5.6496701     -5.6029001    
      5000   0.78164787    -5.5944743      0             -4.4233595      1.1714217    
Loop time of 3.53823 on 1 procs for 5000 steps with 864 atoms

Performance: 610473.897 tau/day, 1413.134 timesteps/s, 1.221 Matom-step/s
100.0% CPU use with 1 MPI tasks x 1 OpenMP threads

MPI task timing breakdown:
Section |  min time  |  avg time  |  max time  |%varavg| %total
---------------------------------------------------------------
Pair    | 2.3534     | 2.3534     | 2.3534     |   0.0 | 66.51
Neigh   | 0.99494    | 0.99494    | 0.99494    |   0.0 | 28.12
Comm    | 0.086466   | 0.086466   | 0.086466   |   0.0 |  2.44
Output  | 4.0716e-05 | 4.0716e-05 | 4.0716e-05 |   0.0 |  0.00
Modify  | 0.081188   | 0.081188   | 0.081188   |   0.0 |  2.29
Other   |            | 0.02222    |            |       |  0.63

Nlocal:            864 ave         864 max         864 min
Histogram: 1 0 0 0 0 0 0 0 0 0
Nghost:           2428 ave        2428 max        2428 min
Histogram: 1 0 0 0 0 0 0 0 0 0
Neighs:          32399 ave       32399 max       32399 min
Histogram: 1 0 0 0 0 0 0 0 0 0

Total # of neighbors = 32399
Ave neighs/atom = 37.498843
Neighbor list builds = 536
Dangerous builds = 0
Generated 0 of 0 mixed pair_coeff terms from geometric mixing rule
Setting up Verlet run ...
  Unit style    : lj
  Current step  : 0
  Time step     : 0.03
Per MPI rank memory allocation (min/avg/max) = 3.174 | 3.174 | 3.174 Mbytes
   Step          Temp          PotEng         KinEng         TotEng         Press          Volume    
         0   0.78164787    -5.5944743      1.1711148     -4.4233595      1.1714217      1023.4542    
        10   0.75292093    -5.5222166      1.1280742     -4.3941423      1.4730304      1023.4542    
        20   0.75761396    -5.5077757      1.1351056     -4.3726701      1.5831983      1023.4542    
        30   0.78802973    -5.5407938      1.1806765     -4.3601173      1.4123526      1023.4542    
        40   0.80914197    -5.5216154      1.2123082     -4.3093072      1.4510279      1023.4542    
        50   0.81507761    -5.4933238      1.2212013     -4.2721225      1.5988679      1023.4542    
        60   0.79796614    -5.4361405      1.1955639     -4.2405767      1.9409585      1023.4542    
        70   0.86378786    -5.476973       1.2941822     -4.1827909      1.7629035      1023.4542    
        80   0.84321247    -5.4122275      1.2633548     -4.1488727      2.0383013      1023.4542    
        90   0.84508043    -5.3590674      1.2661535     -4.0929139      2.3504397      1023.4542    
       100   0.91533018    -5.4516129      1.3714062     -4.0802067      1.9683988      1023.4542    
       110   0.90630468    -5.392936       1.3578836     -4.0350524      2.1982842      1023.4542    
ERROR: Lost atoms: original 864 current 753
For more information see https://docs.lammps.org/err0008 (src/src/thermo.cpp:526)
