LAMMPS (22 Jul 2025 - Update 3)
OMP_NUM_THREADS environment is not set. Defaulting to 1 thread.
  using 1 OpenMP thread(s) per MPI task
Lattice spacing in x,y,z = 2 2 2
Created orthogonal box = (0 0 0) to (12 12 12)
  1 by 1 by 1 MPI processor grid
Created 864 atoms
  using lattice units in orthogonal box = (0 0 0) to (12 12 12)
  create_atoms CPU = 0.001 seconds
Generated 0 of 0 mixed pair_coeff terms from geometric mixing rule
Neighbor list info ...
  update: every = 1 steps, delay = 0 steps, check = yes
  max neighbors/atom: 2000, page size: 100000
  master list distance cutoff = 2.8
  ghost atom cutoff = 2.8
  binsize = 1.4, bins = 9 9 9
  1 neighbor lists, perpetual/occasional/extra = 1 0 0
  (1) pair lj/cut, perpetual
      attributes: half, newton on
      pair build: half/bin/atomonly/newton
      stencil: half/bin/3d
      bin: standard
Setting up Verlet run ...
  Unit style    : lj
  Current step  : 0
  Time step     : 0.005
Per MPI rank memory allocation (min/avg/max) = 3.129 | 3.129 | 3.129 Mbytes
   Step          Temp          E_pair         E_mol          TotEng         Press     
         0   0.75          -3.0307637      0             -1.9070658     -2.2772393    
      5000   0.97430404    -3.4429097      0             -1.9831451     -0.14369475   
Loop time of 2.67914 on 1 procs for 5000 steps with 864 atoms

Performance: 806227.716 tau/day, 1866.268 timesteps/s, 1.612 Matom-step/s
100.0% CPU use with 1 MPI tasks x 1 OpenMP threads

MPI task timing breakdown:
Section |  min time  |  avg time  |  max time  |%varavg| %total
---------------------------------------------------------------
Pair    | 1.5015     | 1.5015     | 1.5015     |   0.0 | 56.05
Neigh   | 0.99362    | 0.99362    | 0.99362    |   0.0 | 37.09
Comm    | 0.082081   | 0.082081   | 0.082081   |   0.0 |  3.06
Output  | 9.6546e-05 | 9.6546e-05 | 9.6546e-05 |   0.0 |  0.00
Modify  | 0.080705   | 0.080705   | 0.080705   |   0.0 |  3.01
Other   |            | 0.0211     |            |       |  0.79

Nlocal:            864 ave         864 max         864 min
Histogram: 1 0 0 0 0 0 0 0 0 0
Nghost:           1936 ave        1936 max        1936 min
Histogram: 1 0 0 0 0 0 0 0 0 0
Neighs:          20240 ave       20240 max       20240 min
Histogram: 1 0 0 0 0 0 0 0 0 0

Total # of neighbors = 20240
Ave neighs/atom = 23.425926
Neighbor list builds = 638
Dangerous builds = 0
Generated 0 of 0 mixed pair_coeff terms from geometric mixing rule
Setting up Verlet run ...
  Unit style    : lj
  Current step  : 0
  Time step     : 0.005
Per MPI rank memory allocation (min/avg/max) = 3.133 | 3.133 | 3.133 Mbytes
   Step          Temp          PotEng         KinEng         TotEng         Press          Volume    
         0   0.97430404    -3.4429097      1.4597646     -1.9831451     -0.14369475     1728         
        10   0.97847609    -3.4498255      1.4660154     -1.9838102     -0.18068305     1728         
        20   0.9632509     -3.4263802      1.443204      -1.9831761     -0.12773467     1728         
        30   0.95492237    -3.4140196      1.4307257     -1.9832939     -0.088557201    1728         
        40   0.94754439    -3.4019677      1.4196715     -1.9822962     -0.069809982    1728         
        50   0.95822822    -3.4178785      1.4356787     -1.9821998     -0.09725694     1728         
        60   0.93349937    -3.3803164      1.3986284     -1.981688       0.016376477    1728         
        70   0.94099222    -3.3921461      1.4098547     -1.9822915      0.0094681897   1728         
        80   0.95205231    -3.408459       1.4264256     -1.9820334     -0.04428015     1728         
        90   0.95228339    -3.4086335      1.4267718     -1.9818617     -0.071509265    1728         
       100   0.9409105     -3.3909579      1.4097322     -1.9812257     -0.044542667    1728         
       110   0.95440353    -3.4108151      1.4299483     -1.9808668     -0.091986086    1728         
       120   0.96101094    -3.4207474      1.439848      -1.9808995     -0.12937764     1728         
       130   0.96394673    -3.4254043      1.4442466     -1.9811577     -0.1357176      1728         
       140   0.95221442    -3.4079098      1.4266685     -1.9812413     -0.05216144     1728         
       150   0.9436992     -3.3956713      1.4139104     -1.9817608     -0.0014110326   1728         
       160   0.9462673     -3.3993353      1.4177581     -1.9815772     -0.030614441    1728         
       170   0.97150002    -3.4370931      1.4555634     -1.9815297     -0.14799542     1728         
       180   0.9764191     -3.4440044      1.4629335     -1.9810709     -0.16607733     1728         
       190   0.94937837    -3.4032601      1.4224193     -1.9808407     -0.045359284    1728         
       200   0.93954488    -3.3884121      1.4076862     -1.980726       0.022830527    1728         
       210   0.95185331    -3.4062128      1.4261274     -1.9800854      0.0071919687   1728         
       220   0.96761481    -3.4309841      1.4497423     -1.9812418     -0.034706352    1728         
       230   0.96152151    -3.4223242      1.440613      -1.9817113      0.011194258    1728         
       240   0.95986098    -3.4208767      1.438125      -1.9827517      0.031393941    1728         
       250   0.97741655    -3.4464003      1.4644279     -1.9819723     -0.036447882    1728         
       260   0.96363245    -3.4254644      1.4437757     -1.9816887      0.0026350866   1728         
       270   0.95410941    -3.4110043      1.4295077     -1.9814966      0.017466158    1728         
       280   0.97260432    -3.4384295      1.4572179     -1.9812116     -0.079149719    1728         
       290   0.95729955    -3.4153111      1.4342873     -1.9810238     -0.060905016    1728         
       300   0.94606963    -3.3997512      1.417462      -1.9822893     -0.050682376    1728         
       310   0.95981507    -3.419396       1.4380563     -1.9813398     -0.12735759     1728         
       320   0.96447106    -3.4257724      1.4450322     -1.9807403     -0.14506106     1728         
       330   0.95338114    -3.409618       1.4284165     -1.9812015     -0.079650219    1728         
       340   0.96295199    -3.4238143      1.4427562     -1.9810581     -0.089704405    1728         
       350   0.95584722    -3.4135001      1.4321114     -1.9813887     -0.080692908    1728         
       360   0.97100685    -3.437966       1.4548245     -1.9831415     -0.14105944     1728         
       370   0.95903787    -3.4193199      1.4368918     -1.9824281     -0.081960422    1728         
       380   0.94989938    -3.4056995      1.4231999     -1.9824996     -0.002231732    1728         
       390   0.96168743    -3.4241988      1.4408615     -1.9833373     -0.0042697284   1728         
       400   0.94452235    -3.3986306      1.4151437     -1.9834869      0.076941947    1728         
       410   0.950472      -3.407133       1.4240579     -1.9830751      0.057523469    1728         
       420   0.95700595    -3.4156854      1.4338475     -1.9818379      0.010499269    1728         
       430   0.95827586    -3.4177267      1.4357501     -1.9819766     -0.010011076    1728         
       440   0.95517608    -3.4137026      1.4311058     -1.9825967     -0.0021406088   1728         
       450   0.96021946    -3.421453       1.4386621     -1.9827909     -0.013130262    1728         
       460   0.9506774     -3.4075218      1.4243656     -1.9831562      0.020578459    1728         
       470   0.94894832    -3.404924       1.421775      -1.983149       0.0080564097   1728         
       480   0.95361215    -3.4118267      1.4287626     -1.9830641     -0.032602085    1728         
       490   0.94478152    -3.3980078      1.415532      -1.9824758     -0.0194599      1728         
       500   0.95760254    -3.4171482      1.4347413     -1.9824069     -0.065959514    1728         
       510   0.95024416    -3.4060955      1.4237165     -1.982379      -0.048144831    1728         
       520   0.95691681    -3.4158678      1.4337139     -1.9821539     -0.0774991      1728         
       530   0.94863513    -3.403555       1.4213058     -1.9822492     -0.054391512    1728         
       540   0.97060977    -3.4363144      1.4542296     -1.9820849     -0.13654478     1728         
       550   0.98457666    -3.4581645      1.4751557     -1.9830088     -0.15494813     1728         
       560   0.94630754    -3.4002013      1.4178184     -1.9823829      0.036849075    1728         
       570   0.94785613    -3.4024995      1.4201386     -1.9823609      0.076229672    1728         
       580   0.94622993    -3.3998343      1.4177021     -1.9821321      0.099021092    1728         
       590   0.96242825    -3.4246467      1.4419715     -1.9826752      0.047594256    1728         
       600   0.97586593    -3.4449281      1.4621047     -1.9828234      0.0028316359   1728         
       610   0.95018592    -3.405279       1.4236293     -1.9816497      0.11101368     1728         
       620   0.97446538    -3.4424499      1.4600063     -1.9824436      0.050201976    1728         
       630   0.96144114    -3.4230033      1.4404925     -1.9825108      0.10811915     1728         
       640   0.95522949    -3.4141045      1.4311859     -1.9829186      0.13937732     1728         
       650   0.96762632    -3.4329778      1.4497596     -1.9832182      0.10149352     1728         
       660   0.97340477    -3.4412601      1.4584172     -1.9828429      0.079767984    1728         
       670   0.96667603    -3.4304488      1.4483358     -1.982113       0.10024218     1728         
       680   0.98847929    -3.4632531      1.4810028     -1.9822503      0.0072327806   1728         
       690   0.9580473     -3.4171347      1.4354077     -1.9817271      0.07231794     1728         
       700   0.99275426    -3.4694177      1.4874079     -1.9820099     -0.088548432    1728         
       710   0.96151653    -3.4231172      1.4406055     -1.9825117     -0.016604109    1728         
       720   0.94204113    -3.3933502      1.4114262     -1.981924       0.02801221     1728         
       730   0.95111167    -3.4073389      1.4250163     -1.9823226     -0.027755718    1728         
       740   0.9511098     -3.4077202      1.4250135     -1.9827067     -0.065888229    1728         
       750   0.9608891     -3.4228606      1.4396654     -1.9831951     -0.11719629     1728         
       760   0.93231689    -3.3801042      1.3968567     -1.9832474     -0.005355707    1728         
       770   0.94230396    -3.3941534      1.41182       -1.9823334     -0.029858127    1728         
       780   0.93767078    -3.3854639      1.4048783     -1.9805857     -0.022652518    1728         
       790   0.94163333    -3.3908775      1.4108152     -1.9800623     -0.029506384    1728         
       800   0.93619133    -3.3826934      1.4026617     -1.9800317      0.0053569742   1728         
       810   0.93963073    -3.3881513      1.4078148     -1.9803365      0.0020708443   1728         
       820   0.93133357    -3.3754824      1.3953835     -1.9800989      0.043555452    1728         
       830   0.94792335    -3.4002724      1.4202393     -1.980033      -0.016960668    1728         
       840   0.9347569     -3.3793766      1.4005125     -1.9788641      0.022051337    1728         
       850   0.94204744    -3.390261       1.4114357     -1.9788254     -0.0092199582   1728         
       860   0.95666989    -3.4128259      1.433344      -1.9794819     -0.063660461    1728         
       870   0.92353378    -3.3636107      1.3836973     -1.9799134      0.050023258    1728         
       880   0.94258818    -3.392609       1.4122458     -1.9803632     -0.03634001     1728         
       890   0.94698061    -3.3993375      1.4188269     -1.9805107     -0.091548027    1728         
       900   0.94981183    -3.4032651      1.4230688     -1.9801963     -0.10833668     1728         
       910   0.93340634    -3.3790293      1.398489      -1.9805403     -0.029817584    1728         
       920   0.93703692    -3.3832426      1.4039286     -1.979314      -0.018359523    1728         
       930   0.94688985    -3.3984779      1.4186909     -1.979787      -0.036355443    1728         
       940   0.92596704    -3.3671254      1.387343      -1.9797825      0.045753687    1728         
       950   0.93097739    -3.374621       1.3948498     -1.9797712      0.023552176    1728         
       960   0.93494443    -3.3802987      1.4007935     -1.9795052     -0.019815381    1728         
       970   0.94421337    -3.3941431      1.4146808     -1.9794623     -0.076894139    1728         
       980   0.94130723    -3.3881147      1.4103266     -1.9777881     -0.070249105    1728         
       990   0.93327515    -3.3766215      1.3982924     -1.9783291     -0.036289803    1728         
      1000   0.93484676    -3.3789995      1.4006471     -1.9783524     -0.063899259    1728         
      1010   0.95936901    -3.4160237      1.4373879     -1.9786358     -0.1721417      1728         
      1020   0.94725556    -3.3976995      1.4192388     -1.9784607     -0.13649403     1728         
      1030   0.93985148    -3.386686       1.4081455     -1.9785405     -0.10095775     1728         
      1040   0.95753524    -3.4127246      1.4346405     -1.9780842     -0.13864643     1728         
      1050   0.94691516    -3.396331       1.4187288     -1.9776022     -0.099685928    1728         
      1060   0.94137804    -3.3886029      1.4104327     -1.9781702     -0.10673306     1728         
      1070   0.93576816    -3.3796517      1.4020276     -1.977624      -0.11868324     1728         
      1080   0.9423087     -3.3896109      1.4118271     -1.9777838     -0.15073625     1728         
      1090   0.91206456    -3.3437464      1.3665134     -1.977233      -0.050524169    1728         
      1100   0.92737443    -3.3671857      1.3894516     -1.9777341     -0.10571627     1728         
      1110   0.93472428    -3.3784615      1.4004636     -1.9779978     -0.12621997     1728         
      1120   0.95282294    -3.4056054      1.4275802     -1.9780252     -0.17619551     1728         
      1130   0.9249608     -3.3638066      1.3858354     -1.9779712     -0.06037854     1728         
      1140   0.91952336    -3.35522        1.3776886     -1.9775313     -0.01642521     1728         
      1150   0.93023915    -3.3716043      1.3937437     -1.9778605     -0.067612197    1728         
      1160   0.93174273    -3.3741633      1.3959965     -1.9781668     -0.10286289     1728         
      1170   0.92809376    -3.3682473      1.3905294     -1.9777179     -0.083911395    1728         
      1180   0.94199679    -3.3909174      1.4113598     -1.9795577     -0.096277717    1728         
      1190   0.92877559    -3.3711412      1.3915509     -1.9795903     -0.03611083     1728         
      1200   0.97263717    -3.4374745      1.4572671     -1.9802074     -0.17366499     1728         
      1210   0.96634317    -3.4288895      1.4478371     -1.9810524     -0.12275612     1728         
      1220   0.94241539    -3.3933805      1.411987      -1.9813935     -0.013948953    1728         
      1230   0.94660199    -3.3996089      1.4182596     -1.9813493     -0.0088142113   1728         
      1240   0.94414465    -3.3967505      1.4145778     -1.9821727      0.0092183116   1728         
      1250   0.9444304     -3.3973948      1.415006      -1.9823889      0.015724983    1728         
      1260   0.94374261    -3.3954123      1.4139755     -1.9814368      0.026405313    1728         
      1270   0.93946056    -3.3884979      1.4075598     -1.9809381      0.05081479     1728         
      1280   0.97049705    -3.4350657      1.4540607     -1.981005      -0.046373042    1728         
      1290   0.96293659    -3.4234228      1.4427331     -1.9806897     -0.010733599    1728         
      1300   0.93913709    -3.387481       1.4070752     -1.9804059      0.087152834    1728         
      1310   0.94774526    -3.39979        1.4199725     -1.9798175      0.057878312    1728         
      1320   0.92977191    -3.372538       1.3930437     -1.9794943      0.078156929    1728         
      1330   0.96007256    -3.4190052      1.438442      -1.9805632     -0.076676305    1728         
      1340   0.96866558    -3.4316501      1.4513167     -1.9803335     -0.13629425     1728         
      1350   0.93030445    -3.3733749      1.3938416     -1.9795334      0.0019064566   1728         
      1360   0.9467274     -3.3977664      1.4184475     -1.9793189     -0.048676083    1728         
      1370   0.95454871    -3.4089654      1.4301659     -1.9787995     -0.084276841    1728         
      1380   0.93552241    -3.3794584      1.4016594     -1.977799      -0.030905686    1728         
      1390   0.95155347    -3.4036076      1.4256782     -1.9779294     -0.094155835    1728         
      1400   0.92850455    -3.3687148      1.3911448     -1.9775699     -0.014888799    1728         
      1410   0.93511716    -3.3782802      1.4010523     -1.9772279     -0.034798667    1728         
      1420   0.93159822    -3.3743193      1.39578       -1.9785394     -0.038610887    1728         
      1430   0.95002877    -3.4020632      1.4233938     -1.9786694     -0.1099793      1728         
      1440   0.92514872    -3.3645826      1.3861169     -1.9784657     -0.016880367    1728         
      1450   0.94582174    -3.3950392      1.4170906     -1.9779487     -0.079838606    1728         
      1460   0.94808705    -3.3984789      1.4204846     -1.9779943     -0.088867676    1728         
      1470   0.94615291    -3.3967083      1.4175867     -1.9791215     -0.07333029     1728         
      1480   0.94509545    -3.3945041      1.4160024     -1.9785017     -0.066204649    1728         
      1490   0.94918152    -3.401626       1.4221244     -1.9795016     -0.081393135    1728         
      1500   0.93692821    -3.3822509      1.4037657     -1.9784852     -0.040431455    1728         
      1510   0.93741946    -3.3822857      1.4045017     -1.9777839     -0.051229107    1728         
      1520   0.94223727    -3.3898754      1.4117201     -1.9781553     -0.081681259    1728         
      1530   0.90576535    -3.3348777      1.3570755     -1.9778022      0.018438677    1728         
      1540   0.91829671    -3.3535357      1.3758508     -1.9776849     -0.071533094    1728         
      1550   0.92208597    -3.3598926      1.3815281     -1.9783645     -0.13001359     1728         
      1560   0.92626341    -3.3647706      1.387787      -1.9769836     -0.14658042     1728         
      1570   0.9125615     -3.3435384      1.3672579     -1.9762805     -0.098394148    1728         
      1580   0.93811419    -3.3819667      1.4055426     -1.9764241     -0.18442705     1728         
      1590   0.91211936    -3.3433675      1.3665955     -1.976772      -0.094805306    1728         
      1600   0.91731513    -3.3510911      1.3743801     -1.9767109     -0.11070555     1728         
      1610   0.89882449    -3.3239776      1.3466763     -1.9773013     -0.058043819    1728         
      1620   0.90834373    -3.3380535      1.3609386     -1.9771149     -0.10138729     1728         
      1630   0.9099462     -3.3409421      1.3633395     -1.9776026     -0.13207298     1728         
      1640   0.91483009    -3.3480496      1.3706569     -1.9773927     -0.17261816     1728         
      1650   0.91795436    -3.3528435      1.3753379     -1.9775056     -0.1916085      1728         
      1660   0.92361525    -3.3620123      1.3838194     -1.9781929     -0.19458666     1728         
      1670   0.91918871    -3.3558427      1.3771872     -1.9786555     -0.15309376     1728         
      1680   0.91958024    -3.354531       1.3777739     -1.9767572     -0.12683847     1728         
      1690   0.94135436    -3.387003       1.4103972     -1.9766058     -0.17625406     1728         
      1700   0.92125587    -3.3568394      1.3802844     -1.976555      -0.074826049    1728         
      1710   0.90282418    -3.3292127      1.3526689     -1.9765439      0.023894919    1728         
      1720   0.9178842     -3.3517955      1.3752327     -1.9765627     -0.020597367    1728         
      1730   0.90875135    -3.3382013      1.3615493     -1.976652      -0.00013158023  1728         
      1740   0.92746147    -3.3667938      1.389582      -1.9772117     -0.080683314    1728         
      1750   0.92816414    -3.3684286      1.3906348     -1.9777938     -0.10598093     1728         
      1760   0.91595994    -3.3495766      1.3723497     -1.9772269     -0.079666311    1728         
      1770   0.91117066    -3.3416715      1.3651741     -1.9764974     -0.089030228    1728         
      1780   0.92378606    -3.3608966      1.3840753     -1.9768213     -0.16428914     1728         
      1790   0.90927235    -3.3390278      1.3623299     -1.9766979     -0.11748115     1728         
      1800   0.90287986    -3.3300077      1.3527523     -1.9772554     -0.079859917    1728         
      1810   0.92016652    -3.3564097      1.3786523     -1.9777574     -0.14680557     1728         
      1820   0.91443769    -3.3471028      1.370069      -1.9770338     -0.12197007     1728         
      1830   0.90071638    -3.326322       1.3495108     -1.9768112     -0.084753478    1728         
      1840   0.93225965    -3.3732767      1.396771      -1.9765058     -0.21725734     1728         
      1850   0.92932602    -3.367813       1.3923756     -1.9754373     -0.21010376     1728         
      1860   0.91078084    -3.3403231      1.36459       -1.975733      -0.13134475     1728         
      1870   0.92301959    -3.3583196      1.3829269     -1.9753927     -0.16081032     1728         
      1880   0.91885863    -3.3526869      1.3766927     -1.9759942     -0.13718437     1728         
      1890   0.91331958    -3.3436643      1.3683937     -1.9752705     -0.10645927     1728         
      1900   0.9366767     -3.3780563      1.4033889     -1.9746674     -0.17073602     1728         
      1910   0.91299142    -3.3424834      1.3679021     -1.9745813     -0.057526822    1728         
      1920   0.90682167    -3.333519       1.3586582     -1.9748608     -0.010329723    1728         
      1930   0.92218235    -3.3574765      1.3816725     -1.975804      -0.065146583    1728         
      1940   0.9235076     -3.3604003      1.3836581     -1.9767422     -0.086256944    1728         
      1950   0.94013626    -3.3850126      1.4085722     -1.9764404     -0.15736129     1728         
      1960   0.9325637     -3.3732234      1.3972265     -1.9759969     -0.13562078     1728         
      1970   0.93899927    -3.3837096      1.4068687     -1.9768409     -0.14618759     1728         
      1980   0.90408299    -3.3320421      1.3545549     -1.9774872     -0.03277138     1728         
      1990   0.9097134     -3.3407845      1.3629907     -1.9777937     -0.073451264    1728         
      2000   0.90730096    -3.3367185      1.3593763     -1.9773422     -0.10151342     1728         
      2010   0.90423946    -3.3319973      1.3547893     -1.977208      -0.12469332     1728         
      2020   0.90458238    -3.3331794      1.3553031     -1.9778763     -0.15872146     1728         
      2030   0.94166994    -3.3890479      1.4108701     -1.9781778     -0.28170944     1728         
      2040   0.92372897    -3.362211       1.3839898     -1.9782213     -0.17989202     1728         
      2050   0.91979912    -3.3561184      1.3781018     -1.9780166     -0.099981035    1728         
      2060   0.88427504    -3.3028058      1.3248774     -1.9779284      0.063053688    1728         
      2070   0.93049874    -3.3725876      1.3941327     -1.9784549     -0.093977798    1728         
      2080   0.93272289    -3.3755943      1.397465      -1.9781293     -0.11086113     1728         
      2090   0.94039729    -3.3880313      1.4089633     -1.979068      -0.11812715     1728         
      2100   0.93094428    -3.3749247      1.3948002     -1.9801245     -0.063663579    1728         
      2110   0.94125256    -3.3899359      1.4102447     -1.9796912     -0.072819834    1728         
      2120   0.93530673    -3.3812775      1.4013363     -1.9799412     -0.042581761    1728         
      2130   0.95517134    -3.4108512      1.4310987     -1.9797524     -0.10166241     1728         
      2140   0.9175239     -3.3547748      1.3746929     -1.9800819      0.034435803    1728         
      2150   0.95036342    -3.4055691      1.4238952     -1.9816739     -0.05684418     1728         
      2160   0.94017625    -3.3899252      1.4086321     -1.9812931      0.018737085    1728         
      2170   0.95623583    -3.4139546      1.4326936     -1.981261       0.017214091    1728         
      2180   0.95178818    -3.4061159      1.4260299     -1.980086       0.052100199    1728         
      2190   0.97095012    -3.4352592      1.4547395     -1.9805197     -0.011839557    1728         
      2200   0.97726144    -3.4445841      1.4641955     -1.9803886     -0.028510563    1728         
      2210   0.96794737    -3.4309114      1.4502406     -1.9806708      0.021577234    1728         
      2220   0.98787352    -3.4611878      1.4800952     -1.9810926     -0.02714559     1728         
      2230   0.96875292    -3.4327548      1.4514475     -1.9813073      0.057485759    1728         
      2240   0.97072084    -3.4350784      1.454396      -1.9806824      0.059268317    1728         
      2250   0.96430755    -3.4247741      1.4447872     -1.9799869      0.041683396    1728         
      2260   0.96984556    -3.4334733      1.4530846     -1.9803887     -0.025266215    1728         
      2270   0.94115502    -3.3904598      1.4100986     -1.9803612      0.041186268    1728         
      2280   0.94311223    -3.392964       1.413031      -1.979933       0.01749299     1728         
      2290   0.93804767    -3.3848555      1.4054429     -1.9794126      0.0041665363   1728         
      2300   0.93544142    -3.3811363      1.4015381     -1.9795982     -0.0087977826   1728         
      2310   0.92935456    -3.3729125      1.3924184     -1.9804941      0.0035206975   1728         
      2320   0.92249186    -3.3616165      1.3821362     -1.9794802      0.033975997    1728         
      2330   0.9316463     -3.3758389      1.395852      -1.9799869     -0.0042933213   1728         
      2340   0.92839702    -3.3714065      1.3909837     -1.9804228     -0.026821005    1728         
      2350   0.93544573    -3.3816808      1.4015446     -1.9801362     -0.081498863    1728         
      2360   0.95057948    -3.4047355      1.4242189     -1.9805166     -0.15285429     1728         
      2370   0.9380695     -3.3855766      1.4054757     -1.980101      -0.094432586    1728         
      2380   0.92890651    -3.3715746      1.3917471     -1.9798275     -0.035974221    1728         
      2390   0.94081671    -3.3890105      1.4095917     -1.9794188     -0.065572311    1728         
      2400   0.95617439    -3.4120154      1.4326016     -1.9794138     -0.10806769     1728         
      2410   0.93001332    -3.3727137      1.3934054     -1.9793084     -0.0021636258   1728         
      2420   0.94548963    -3.3963004      1.416593      -1.9797074     -0.048557457    1728         
      2430   0.95182587    -3.405857       1.4260863     -1.9797707     -0.082227264    1728         
      2440   0.93439765    -3.3797452      1.3999743     -1.979771      -0.028907894    1728         
      2450   0.94000302    -3.3881062      1.4083726     -1.9797336     -0.045964643    1728         
      2460   0.94573657    -3.3976314      1.4169629     -1.9806684     -0.049813207    1728         
      2470   0.93160652    -3.3758616      1.3957924     -1.9800692      0.018792399    1728         
      2480   0.95063792    -3.4046497      1.4243065     -1.9803433     -0.043465254    1728         
      2490   0.93875276    -3.3867423      1.4064994     -1.980243      -0.026676662    1728         
      2500   0.96463431    -3.4262957      1.4452767     -1.9810189     -0.13396734     1728         
      2510   0.9403956     -3.3907534      1.4089608     -1.9817926     -0.038590033    1728         
      2520   0.94561495    -3.398234       1.4167807     -1.9814532     -0.0064475013   1728         
      2530   0.93915026    -3.3883422      1.4070949     -1.9812473      0.051222916    1728         
      2540   0.94713571    -3.4007108      1.4190592     -1.9816516      0.032832525    1728         
      2550   0.95113252    -3.4065844      1.4250475     -1.9815369      0.024737083    1728         
      2560   0.95106363    -3.406903       1.4249443     -1.9819587      0.036531621    1728         
      2570   0.96458031    -3.4276589      1.4451959     -1.9824631      0.0065925832   1728         
      2580   0.94979265    -3.4057551      1.42304       -1.9827151      0.073821858    1728         
      2590   0.96298157    -3.4259814      1.4428005     -1.9831809      0.024891184    1728         
      2600   0.94732265    -3.4036414      1.4193393     -1.984302       0.058831695    1728         
      2610   0.94612028    -3.4015718      1.4175378     -1.984034       0.055351234    1728         
      2620   0.95988552    -3.4216976      1.4381618     -1.9835357     -0.025495849    1728         
      2630   0.97466633    -3.4444463      1.4603074     -1.9841389     -0.12735978     1728         
      2640   0.96058045    -3.4224624      1.439203      -1.9832594     -0.10397763     1728         
      2650   0.95802236    -3.4185913      1.4353703     -1.983221      -0.093918626    1728         
      2660   0.93502448    -3.3834171      1.4009134     -1.9825037     -0.020896682    1728         
      2670   0.95434628    -3.4121592      1.4298626     -1.9822966     -0.075203997    1728         
      2680   0.93835871    -3.3880465      1.405909      -1.9821375     -0.0092693523   1728         
      2690   0.97044569    -3.4364827      1.4539837     -1.9824989     -0.10695805     1728         
      2700   0.96166866    -3.423703       1.4408334     -1.9828696     -0.066758968    1728         
      2710   0.95702842    -3.4159577      1.4338811     -1.9820766     -0.040327995    1728         
      2720   0.97295882    -3.4406756      1.4577491     -1.9829265     -0.082321032    1728         
      2730   0.97334913    -3.4409588      1.4583339     -1.9826249     -0.073657286    1728         
      2740   0.98505085    -3.4590621      1.4758661     -1.983196      -0.10080926     1728         
      2750   0.96000435    -3.421839       1.4383399     -1.9834991      2.6212149e-05  1728         
      2760   0.96947497    -3.4367841      1.4525293     -1.9842548     -0.032683359    1728         
      2770   0.96912988    -3.435377       1.4520123     -1.9833647     -0.042390554    1728         
      2780   0.97062958    -3.4373211      1.4542593     -1.9830618     -0.061169939    1728         
      2790   0.98603035    -3.4613317      1.4773337     -1.9839981     -0.10832637     1728         
      2800   0.96500617    -3.4298868      1.4458339     -1.9840529     -0.01888954     1728         
      2810   0.98272049    -3.4563014      1.4723746     -1.9839268     -0.068286978    1728         
      2820   0.98386154    -3.4580689      1.4740842     -1.9839846     -0.069137432    1728         
      2830   0.96648243    -3.4314236      1.4480457     -1.9833778      0.008745221    1728         
      2840   0.93603797    -3.3847603      1.4024319     -1.9823285      0.12737963     1728         
      2850   0.95596064    -3.4145885      1.4322813     -1.9823072      0.053637936    1728         
      2860   0.94281424    -3.3948245      1.4125845     -1.98224        0.072592673    1728         
      2870   0.97689503    -3.4462458      1.4636465     -1.9825993     -0.057940484    1728         
      2880   0.99722385    -3.4778138      1.4941045     -1.9837094     -0.12623259     1728         
      2890   0.98059691    -3.4531693      1.4691929     -1.9839764     -0.025078242    1728         
      2900   0.97321177    -3.4416856      1.4581281     -1.9835575      0.043711587    1728         
      2910   0.96290111    -3.4255569      1.44268       -1.9828769      0.07567952     1728         
      2920   0.97049139    -3.4366875      1.4540522     -1.9826353      0.034505544    1728         
      2930   0.95364207    -3.4111961      1.4288075     -1.9823886      0.075487033    1728         
      2940   0.95750571    -3.4166874      1.4345962     -1.9820912      0.046431287    1728         
      2950   0.95399139    -3.4112316      1.4293308     -1.9819008      0.022421752    1728         
      2960   0.96691339    -3.430734       1.4486914     -1.9820426     -0.053249438    1728         
      2970   0.94381303    -3.3960079      1.414081      -1.9819269      0.0148661      1728         
      2980   0.96835227    -3.4321849      1.4508472     -1.9813377     -0.044525968    1728         
      2990   0.97140949    -3.436245       1.4554278     -1.9808173     -0.024478736    1728         
      3000   0.94319921    -3.3933818      1.4131613     -1.9802205      0.090733413    1728         
      3010   0.94759538    -3.4013314      1.4197479     -1.9815834      0.069578859    1728         
      3020   0.97154604    -3.4372723      1.4556323     -1.98164       -0.047167396    1728         
      3030   0.99860978    -3.4772328      1.496181      -1.9810519     -0.15911358     1728         
      3040   0.9745763     -3.4416319      1.4601725     -1.9814594     -0.069064501    1728         
      3050   0.95114846    -3.4068346      1.4250714     -1.9817632      0.019251289    1728         
      3060   0.95978212    -3.4200887      1.4380069     -1.9820818     -0.036355642    1728         
      3070   0.98095019    -3.4514308      1.4697222     -1.9817085     -0.12127585     1728         
      3080   0.96319492    -3.4248196      1.4431202     -1.9816994     -0.033784979    1728         
      3090   0.95180542    -3.4071944      1.4260557     -1.9811387      0.043593864    1728         
      3100   0.96355221    -3.4251235      1.4436555     -1.981468       0.028824747    1728         
      3110   0.95139455    -3.406492       1.4254401     -1.9810519      0.090029694    1728         
      3120   0.9547744     -3.413015       1.430504      -1.982511       0.062138944    1728         
      3130   0.95748373    -3.4169438      1.4345633     -1.9823805      0.013876931    1728         
      3140   0.95683908    -3.4148133      1.4335974     -1.9812158     -0.02509522     1728         
      3150   0.94731197    -3.4009671      1.4193233     -1.9816438     -0.0138823      1728         
      3160   0.93135798    -3.3766878      1.39542       -1.9812677      0.035191103    1728         
      3170   0.94013678    -3.3901039      1.408573      -1.9815309     -0.004627831    1728         
      3180   0.94285363    -3.3934282      1.4126435     -1.9807846     -0.044818752    1728         
      3190   0.97252776    -3.4374215      1.4571032     -1.9803183     -0.16182832     1728         
      3200   0.96299877    -3.423924       1.4428263     -1.9810977     -0.1137982      1728         
      3210   0.95184871    -3.4070539      1.4261206     -1.9809333     -0.022306315    1728         
      3220   0.94561884    -3.3970819      1.4167866     -1.9802953      0.040130245    1728         
      3230   0.93957199    -3.3881871      1.4077268     -1.9804603      0.037675327    1728         
      3240   0.95461845    -3.410203       1.4302704     -1.9799327     -0.065154145    1728         
      3250   0.97269822    -3.4382105      1.4573586     -1.9808519     -0.1617487      1728         
      3260   0.95104712    -3.4055568      1.4249196     -1.9806372     -0.10196958     1728         
      3270   0.95228217    -3.4077098      1.42677       -1.9809398     -0.093695751    1728         
      3280   0.95174583    -3.4062431      1.4259664     -1.9802767     -0.076913148    1728         
      3290   0.95376432    -3.4087342      1.4289906     -1.9797435     -0.087940069    1728         
      3300   0.97474437    -3.4405815      1.4604243     -1.9801572     -0.16040084     1728         
      3310   0.95570323    -3.4125513      1.4318956     -1.9806556     -0.088910372    1728         
      3320   0.95522038    -3.4116454      1.4311722     -1.9804732     -0.08485278     1728         
      3330   0.9696959     -3.4332651      1.4528603     -1.9804048     -0.12082269     1728         
      3340   0.96757239    -3.4305754      1.4496788     -1.9808966     -0.069087745    1728         
      3350   0.95000906    -3.4038362      1.4233643     -1.9804719      0.049975342    1728         
      3360   0.96332439    -3.4236936      1.4433141     -1.9803794      0.03187641     1728         
      3370   0.95455413    -3.4109888      1.430174      -1.9808149      0.064509793    1728         
      3380   0.96941812    -3.4338871      1.4524442     -1.981443       0.0069573265   1728         
      3390   0.96676178    -3.4296433      1.4484643     -1.981179       0.023688821    1728         
      3400   0.93814316    -3.3867304      1.405586      -1.9811444      0.15542306     1728         
      3410   0.92798588    -3.3717133      1.3903677     -1.9813455      0.21273607     1728         
      3420   0.95760094    -3.4170214      1.4347389     -1.9822825      0.11293273     1728         
      3430   0.96411389    -3.4273336      1.444497      -1.9828366      0.084440204    1728         
      3440   0.96302962    -3.4254153      1.4428725     -1.9825428      0.072706638    1728         
      3450   0.96464023    -3.4269309      1.4452856     -1.9816453      0.040629251    1728         
      3460   0.97831809    -3.4475566      1.4657787     -1.9817779     -0.02840617     1728         
      3470   0.94632116    -3.3994576      1.4178388     -1.9816187      0.072324426    1728         
      3480   0.94562157    -3.3980177      1.4167907     -1.981227       0.05552441     1728         
      3490   0.95761821    -3.4156547      1.4347648     -1.9808899     -0.0037872651   1728         
      3500   0.9377571     -3.3846039      1.4050076     -1.9795963      0.071993994    1728         
      3510   0.93962086    -3.3878683      1.4078        -1.9800683      0.068740667    1728         
      3520   0.9196055     -3.358121       1.3778117     -1.9803093      0.11353449     1728         
      3530   0.91751511    -3.3554167      1.3746798     -1.9807369      0.05590773     1728         
      3540   0.95960884    -3.4189585      1.4377473     -1.9812113     -0.17385804     1728         
      3550   0.95193063    -3.4063331      1.4262433     -1.9800898     -0.1915917      1728         
      3560   0.93083998    -3.3749408      1.3946439     -1.9802968     -0.1024081      1728         
      3570   0.91824604    -3.3561945      1.3757749     -1.9804196     -0.042518453    1728         
      3580   0.9215153     -3.3610007      1.3806731     -1.9803276     -0.050384488    1728         
      3590   0.93431795    -3.3795457      1.3998548     -1.9796908     -0.089854673    1728         
      3600   0.92029613    -3.3585999      1.3788465     -1.9797535     -0.036152715    1728         
      3610   0.91482259    -3.3499144      1.3706456     -1.9792688      0.016792696    1728         
      3620   0.90577607    -3.3358526      1.3570916     -1.978761       0.06717884     1728         
      3630   0.91057321    -3.343121       1.364279      -1.9788421      0.037404864    1728         
      3640   0.9410353     -3.3884804      1.4099192     -1.9785612     -0.093729622    1728         
      3650   0.94159617    -3.3893042      1.4107595     -1.9785447     -0.10269186     1728         
      3660   0.91514607    -3.3501203      1.3711303     -1.97899       -0.0066125473   1728         
      3670   0.91340739    -3.3480742      1.3685253     -1.9795489     -0.0041672296   1728         
      3680   0.92421598    -3.3639567      1.3847194     -1.9792373     -0.044827814    1728         
      3690   0.92004189    -3.3583244      1.3784655     -1.9798589     -0.041002965    1728         
      3700   0.92329681    -3.3627675      1.3833423     -1.9794252     -0.051177901    1728         
      3710   0.93813721    -3.3847766      1.4055771     -1.9791995     -0.090488274    1728         
      3720   0.93865608    -3.3850839      1.4063545     -1.9787294     -0.070217064    1728         
      3730   0.94928371    -3.4012982      1.4222775     -1.9790207     -0.096622057    1728         
      3740   0.95678854    -3.4116439      1.4335217     -1.9781221     -0.12630807     1728         
      3750   0.96178799    -3.4195494      1.4410122     -1.9785372     -0.14287884     1728         
      3760   0.95489313    -3.409492       1.4306819     -1.9788101     -0.10213292     1728         
      3770   0.93663195    -3.3829722      1.4033218     -1.9796504     -0.039038342    1728         
      3780   0.95453133    -3.4101192      1.4301398     -1.9799794     -0.11078777     1728         
      3790   0.93981346    -3.3879673      1.4080886     -1.9798787     -0.056955701    1728         
      3800   0.94062278    -3.3889465      1.4093011     -1.9796454     -0.064388561    1728         
      3810   0.97888326    -3.4462929      1.4666254     -1.9796674     -0.20589917     1728         
      3820   0.9476571     -3.3993624      1.4198404     -1.979522      -0.090481301    1728         
      3830   0.93035089    -3.3741647      1.3939111     -1.9802535     -0.022586303    1728         
      3840   0.96157479    -3.4210651      1.4406928     -1.9803723     -0.12714408     1728         
      3850   0.92809328    -3.3706841      1.3905286     -1.9801555      0.0067185289   1728         
      3860   0.94306187    -3.3939069      1.4129555     -1.9809514     -0.01776437     1728         
      3870   0.93074091    -3.3750033      1.3944955     -1.9805078      0.032925277    1728         
      3880   0.92812744    -3.3710891      1.3905798     -1.9805093      0.04295547     1728         
      3890   0.93921692    -3.3876601      1.4071948     -1.9804653     -0.010919012    1728         
      3900   0.97139466    -3.4354165      1.4554055     -1.9800109     -0.13822384     1728         
      3910   0.9314841     -3.375274       1.395609      -1.979665      -0.0051246492   1728         
      3920   0.93976058    -3.388018       1.4080093     -1.9800086     -0.056328612    1728         
      3930   0.93356617    -3.3784112      1.3987285     -1.9796827     -0.080565894    1728         
      3940   0.93161765    -3.3753075      1.3958091     -1.9794984     -0.11572203     1728         
      3950   0.92980383    -3.3722295      1.3930915     -1.979138      -0.13765628     1728         
      3960   0.92930795    -3.3719197      1.3923485     -1.9795712     -0.15492143     1728         
      3970   0.94695252    -3.39835        1.4187848     -1.9795652     -0.21908403     1728         
      3980   0.94121072    -3.389778       1.410182      -1.979596      -0.17789076     1728         
      3990   0.93876294    -3.386743       1.4065146     -1.9802284     -0.12228027     1728         
      4000   0.92730483    -3.3688966      1.3893473     -1.9795493     -0.057216432    1728         
      4010   0.94351629    -3.3933308      1.4136364     -1.9796944     -0.11527739     1728         
      4020   0.92657697    -3.3682576      1.3882568     -1.9800008     -0.072723975    1728         
      4030   0.92457784    -3.3652178      1.3852616     -1.9799562     -0.082259937    1728         
      4040   0.92216923    -3.3610744      1.3816529     -1.9794216     -0.080013536    1728         
      4050   0.92052817    -3.358575       1.3791941     -1.9793809     -0.078700148    1728         
      4060   0.94904412    -3.400809       1.4219185     -1.9788905     -0.17898873     1728         
      4070   0.92952656    -3.3714856      1.3926761     -1.9788095     -0.092910502    1728         
      4080   0.92721236    -3.3677214      1.3892088     -1.9785126     -0.063802542    1728         
      4090   0.94009531    -3.3873788      1.4085109     -1.978868      -0.090450188    1728         
      4100   0.9460636     -3.3970549      1.4174529     -1.9796019     -0.096508721    1728         
      4110   0.93542972    -3.3805927      1.4015206     -1.9790721     -0.054348659    1728         
      4120   0.96464311    -3.4244047      1.4452899     -1.9791147     -0.16221267     1728         
      4130   0.96504913    -3.4249947      1.4458983     -1.9790964     -0.15635538     1728         
      4140   0.92840321    -3.3708369      1.390993      -1.9798439     -0.00020659475  1728         
      4150   0.941821      -3.3916798      1.4110964     -1.9805834     -0.024019949    1728         
      4160   0.96423215    -3.4248287      1.4446742     -1.9801545     -0.10095775     1728         
      4170   0.9611542     -3.4196921      1.4400626     -1.9796295     -0.076358042    1728         
      4180   0.95865599    -3.4158447      1.4363197     -1.979525      -0.044561512    1728         
      4190   0.94949519    -3.4028524      1.4225944     -1.980258      -0.00053637051  1728         
      4200   0.95146522    -3.4056741      1.425546      -1.9801281      0.013135476    1728         
      4210   0.96932602    -3.433708       1.4523062     -1.9814018     -0.02341947     1728         
      4220   0.95196344    -3.4080731      1.4262924     -1.9817807      0.054459769    1728         
      4230   0.95689398    -3.4161646      1.4336797     -1.9824849      0.044558687    1728         
      4240   0.95356914    -3.4114336      1.4286982     -1.9827354      0.057996441    1728         
      4250   0.95270114    -3.4092924      1.4273977     -1.9818947      0.052872118    1728         
      4260   0.97792683    -3.4466892      1.4651924     -1.9814968     -0.056536442    1728         
      4270   0.95761924    -3.4155945      1.4347663     -1.9808282      0.0067194307   1728         
      4280   0.95673354    -3.4141164      1.4334393     -1.9806771      0.016020056    1728         
      4290   0.9433696     -3.3940495      1.4134166     -1.9806329      0.056077806    1728         
      4300   0.94450696    -3.3959324      1.4151207     -1.9808117      0.018174919    1728         
      4310   0.96388271    -3.4251018      1.4441507     -1.9809512     -0.091026858    1728         
      4320   0.9599395     -3.4196262      1.4382427     -1.9813835     -0.11982655     1728         
      4330   0.97428237    -3.4412293      1.4597321     -1.9814972     -0.18485501     1728         
      4340   0.93727253    -3.3866294      1.4042816     -1.9823478     -0.06242735     1728         
      4350   0.94810269    -3.4026012      1.420508      -1.9820932     -0.11052806     1728         
      4360   0.93875539    -3.3885727      1.4065033     -1.9820694     -0.10299136     1728         
      4370   0.94244723    -3.3937519      1.4120347     -1.9817172     -0.13474258     1728         
      4380   0.94424163    -3.3958393      1.4147231     -1.9811162     -0.15943235     1728         
      4390   0.9325656     -3.3784596      1.3972294     -1.9812302     -0.12774608     1728         
      4400   0.92105393    -3.3603596      1.3799818     -1.9803777     -0.089426195    1728         
      4410   0.92945528    -3.3734998      1.3925693     -1.9809305     -0.11242449     1728         
      4420   0.94424313    -3.3962203      1.4147254     -1.9814949     -0.15140036     1728         
      4430   0.94449075    -3.3963283      1.4150964     -1.981232      -0.12973922     1728         
      4440   0.92863969    -3.3725842      1.3913473     -1.9812369     -0.055928079    1728         
      4450   0.93383239    -3.3801578      1.3991274     -1.9810305     -0.07999877     1728         
      4460   0.9460039     -3.3976963      1.4173635     -1.9803328     -0.13097983     1728         
      4470   0.93698755    -3.3838358      1.4038546     -1.9799812     -0.087869529    1728         
      4480   0.95194217    -3.4070407      1.4262606     -1.9807801     -0.092251281    1728         
      4490   0.94004522    -3.3893196      1.4084358     -1.9808838     -0.0030625745   1728         
      4500   0.94943272    -3.404949       1.4225008     -1.9824482     -0.01233178     1728         
      4510   0.9431038     -3.3950846      1.4130184     -1.9820662      0.012459657    1728         
      4520   0.97165623    -3.4375696      1.4557974     -1.9817722     -0.086669515    1728         
      4530   0.95678476    -3.4145998      1.4335161     -1.9810837     -0.02460398     1728         
      4540   0.95168714    -3.4067913      1.4258785     -1.9809129      0.012049087    1728         
      4550   0.98374726    -3.4549599      1.473913      -1.9810469     -0.10174823     1728         
      4560   0.96963535    -3.43462        1.4527696     -1.9818503     -0.054896854    1728         
      4570   0.98346782    -3.4541267      1.4734943     -1.9806324     -0.083588675    1728         
      4580   0.97015515    -3.4351225      1.4535484     -1.9815741     -0.011326143    1728         
      4590   0.96655672    -3.4300823      1.448157      -1.9819253      0.030769511    1728         
      4600   0.97072825    -3.4365138      1.4544071     -1.9821067      0.022506917    1728         
      4610   0.96777772    -3.4327602      1.4499864     -1.9827738      0.016786686    1728         
      4620   0.96228762    -3.4244611      1.4417608     -1.9827003      0.0056886579   1728         
      4630   0.95899741    -3.4191139      1.4368312     -1.9822827     -0.0048577258   1728         
      4640   0.9619724     -3.4231418      1.4412885     -1.9818532     -0.019421103    1728         
      4650   0.94360496    -3.3953003      1.4137692     -1.981531       0.017166495    1728         
      4660   0.94540575    -3.3976874      1.4164673     -1.9812201     -0.016301511    1728         
      4670   0.95508001    -3.4129827      1.4309619     -1.9820208     -0.045874134    1728         
      4680   0.95500856    -3.4124214      1.4308548     -1.9815666     -0.028129412    1728         
      4690   0.96505947    -3.4276218      1.4459138     -1.981708      -0.050078472    1728         
      4700   0.94944378    -3.4034387      1.4225173     -1.9809214      0.0035825729   1728         
      4710   0.96674573    -3.42999        1.4484402     -1.9815498     -0.050850694    1728         
      4720   0.95494503    -3.4116189      1.4307597     -1.9808592     -0.0096778292   1728         
      4730   0.97065276    -3.4340599      1.454294      -1.9797659     -0.070924012    1728         
      4740   0.96569614    -3.4272637      1.4468677     -1.980396      -0.052261815    1728         
      4750   0.95326561    -3.4095412      1.4282434     -1.9812978     -0.0068583786   1728         
      4760   0.95378566    -3.4099665      1.4290226     -1.9809439     -0.027438959    1728         
      4770   0.97756785    -3.4461407      1.4646546     -1.9814861     -0.13620693     1728         
      4780   0.95255483    -3.4089945      1.4271785     -1.981816      -0.060532011    1728         
      4790   0.93288108    -3.3789215      1.397702      -1.9812195      0.0057768721   1728         
      4800   0.94369535    -3.3946212      1.4139047     -1.9807165     -0.041600629    1728         
      4810   0.95381397    -3.410186       1.429065      -1.9811209     -0.093719942    1728         
      4820   0.96138802    -3.4210827      1.440413      -1.9806698     -0.12525625     1728         
      4830   0.95669585    -3.4143575      1.4333828     -1.9809747     -0.09153678     1728         
      4840   0.9334582     -3.379865       1.3985667     -1.9812983      0.03445418     1728         
      4850   0.93103619    -3.3763059      1.3949379     -1.981368       0.06740199     1728         
      4860   0.96532379    -3.4278685      1.4463098     -1.9815588     -0.050522974    1728         
      4870   0.93723812    -3.3859297      1.40423       -1.9816996      0.047893484    1728         
      4880   0.96374178    -3.4256257      1.4439395     -1.9816862     -0.037940167    1728         
      4890   0.96484937    -3.4264921      1.445599      -1.9808932     -0.045722053    1728         
      4900   0.93360068    -3.3796871      1.3987802     -1.9809069      0.046547503    1728         
      4910   0.94621107    -3.3987659      1.4176739     -1.981092      -0.0047446465   1728         
      4920   0.93700361    -3.3843068      1.4038787     -1.9804282      0.017469326    1728         
      4930   0.96420215    -3.425345       1.4446293     -1.9807157     -0.089753465    1728         
      4940   0.94146228    -3.3908835      1.4105589     -1.9803246      0.0050757202   1728         
      4950   0.91914335    -3.3567797      1.3771193     -1.9796604      0.11396476     1728         
      4960   0.94534367    -3.3962754      1.4163743     -1.9799011      0.02098017     1728         
      4970   0.93506421    -3.3804426      1.4009729     -1.9794697      0.036932745    1728         
      4980   0.94696726    -3.3988116      1.4188069     -1.9800048     -0.038526854    1728         
      4990   0.96790883    -3.4308397      1.4501828     -1.9806569     -0.13857097     1728         
      5000   0.97535486    -3.442226       1.461339      -1.980887      -0.15963658     1728         
Loop time of 2.92347 on 1 procs for 5000 steps with 864 atoms

Performance: 738846.823 tau/day, 1710.294 timesteps/s, 1.478 Matom-step/s
100.0% CPU use with 1 MPI tasks x 1 OpenMP threads

MPI task timing breakdown:
Section |  min time  |  avg time  |  max time  |%varavg| %total
---------------------------------------------------------------
Pair    | 1.671      | 1.671      | 1.671      |   0.0 | 57.16
Neigh   | 0.97066    | 0.97066    | 0.97066    |   0.0 | 33.20
Comm    | 0.081504   | 0.081504   | 0.081504   |   0.0 |  2.79
Output  | 0.13504    | 0.13504    | 0.13504    |   0.0 |  4.62
Modify  | 0.043924   | 0.043924   | 0.043924   |   0.0 |  1.50
Other   |            | 0.02133    |            |       |  0.73

Nlocal:            864 ave         864 max         864 min
Histogram: 1 0 0 0 0 0 0 0 0 0
Nghost:           2040 ave        2040 max        2040 min
Histogram: 1 0 0 0 0 0 0 0 0 0
Neighs:          20103 ave       20103 max       20103 min
Histogram: 1 0 0 0 0 0 0 0 0 0

Total # of neighbors = 20103
Ave neighs/atom = 23.267361
Neighbor list builds = 621
Dangerous builds = 0
Total wall time: 0:00:05
