LAMMPS (22 Jul 2025 - Update 3)
OMP_NUM_THREADS environment is not set. Defaulting to 1 thread.
  using 1 OpenMP thread(s) per MPI task
Lattice spacing in x,y,z = 1.6795962 1.6795962 1.6795962
Created orthogonal box = (0 0 0) to (10.077577 10.077577 10.077577)
  1 by 1 by 1 MPI processor grid
Created 864 atoms
  using lattice units in orthogonal box = (0 0 0) to (10.077577 10.077577 10.077577)
  create_atoms CPU = 0.001 seconds
Generated 0 of 0 mixed pair_coeff terms from geometric mixing rule
Neighbor list info ...
  update: every = 1 steps, delay = 0 steps, check = yes
  max neighbors/atom: 2000, page size: 100000
  master list distance cutoff = 2.8
  ghost atom cutoff = 2.8
  binsize = 1.4, bins = 8 8 8
  1 neighbor lists, perpetual/occasional/extra = 1 0 0
  (1) pair lj/cut, perpetual
      attributes: half, newton on
      pair build: half/bin/atomonly/newton
      stencil: half/bin/3d
      bin: standard
Setting up Verlet run ...
  Unit style    : lj
  Current step  : 0
  Time step     : 0.005
Per MPI rank memory allocation (min/avg/max) = 3.174 | 3.174 | 3.174 Mbytes
   Step          Temp          E_pair         E_mol          TotEng         Press     
         0   0.75          -6.7733681      0             -5.6496701     -5.6029001    
      5000   0.78164787    -5.5944743      0             -4.4233595      1.1714217    
Loop time of 3.54341 on 1 procs for 5000 steps with 864 atoms

Performance: 609581.867 tau/day, 1411.069 timesteps/s, 1.219 Matom-step/s
99.9% CPU use with 1 MPI tasks x 1 OpenMP threads

MPI task timing breakdown:
Section |  min time  |  avg time  |  max time  |%varavg| %total
---------------------------------------------------------------
Pair    | 2.3575     | 2.3575     | 2.3575     |   0.0 | 66.53
Neigh   | 0.99651    | 0.99651    | 0.99651    |   0.0 | 28.12
Comm    | 0.08722    | 0.08722    | 0.08722    |   0.0 |  2.46
Output  | 4.348e-05  | 4.348e-05  | 4.348e-05  |   0.0 |  0.00
Modify  | 0.080054   | 0.080054   | 0.080054   |   0.0 |  2.26
Other   |            | 0.02212    |            |       |  0.62

Nlocal:            864 ave         864 max         864 min
Histogram: 1 0 0 0 0 0 0 0 0 0
Nghost:           2428 ave        2428 max        2428 min
Histogram: 1 0 0 0 0 0 0 0 0 0
Neighs:          32399 ave       32399 max       32399 min
Histogram: 1 0 0 0 0 0 0 0 0 0

Total # of neighbors = 32399
Ave neighs/atom = 37.498843
Neighbor list builds = 536
Dangerous builds = 0
Generated 0 of 0 mixed pair_coeff terms from geometric mixing rule
Setting up Verlet run ...
  Unit style    : lj
  Current step  : 0
  Time step     : 0.02
Per MPI rank memory allocation (min/avg/max) = 3.174 | 3.174 | 3.174 Mbytes
   Step          Temp          PotEng         KinEng         TotEng         Press          Volume    
         0   0.78164787    -5.5944743      1.1711148     -4.4233595      1.1714217      1023.4542    
       100   0.7647847     -5.565884       1.1458493     -4.4200347      1.2649801      1023.4542    
       200   0.75849295    -5.5555858      1.1364226     -4.4191632      1.3076791      1023.4542    
       300   0.76245079    -5.5604254      1.1423525     -4.4180729      1.2923053      1023.4542    
       400   0.75443205    -5.548106       1.1303383     -4.4177677      1.4717551      1023.4542    
       500   0.75199905    -5.5440475      1.126693      -4.4173545      1.3479932      1023.4542    
       600   0.77053334    -5.5737236      1.1544623     -4.4192614      1.2198503      1023.4542    
       700   0.75830543    -5.5530851      1.1361416     -4.4169434      1.3527729      1023.4542    
       800   0.75743424    -5.5538856      1.1348364     -4.4190492      1.3346952      1023.4542    
       900   0.76431294    -5.561631       1.1451425     -4.4164886      1.3207072      1023.4542    
      1000   0.75796341    -5.5522817      1.1356292     -4.4166525      1.3434765      1023.4542    
      1100   0.79633503    -5.6110105      1.19312       -4.4178905      1.1001172      1023.4542    
      1200   0.77527423    -5.5767198      1.1615654     -4.4151545      1.2309075      1023.4542    
      1300   0.75961152    -5.5511669      1.1380985     -4.4130684      1.298129       1023.4542    
      1400   0.75226558    -5.5417479      1.1270924     -4.4146556      1.3854242      1023.4542    
      1500   0.79129539    -5.5987403      1.1855693     -4.413171       1.1423438      1023.4542    
      1600   0.77773038    -5.5760934      1.1652453     -4.410848       1.2588498      1023.4542    
      1700   0.78699021    -5.5885744      1.179119      -4.4094554      1.1996676      1023.4542    
      1800   0.75860904    -5.5416817      1.1365965     -4.4050852      1.3605177      1023.4542    
      1900   0.78032111    -5.5726144      1.1691269     -4.4034875      1.3299391      1023.4542    
      2000   0.76435808    -5.5497668      1.1452101     -4.4045567      1.3674714      1023.4542    
      2100   0.78290619    -5.5763041      1.1730001     -4.403304       1.154118       1023.4542    
      2200   0.78642941    -5.5795314      1.1782788     -4.4012526      1.2352594      1023.4542    
      2300   0.79081674    -5.5867929      1.1848522     -4.4019408      1.2458573      1023.4542    
      2400   0.75857809    -5.5352211      1.1365502     -4.398671       1.5068835      1023.4542    
      2500   0.76140963    -5.5426492      1.1407926     -4.4018566      1.34801        1023.4542    
      2600   0.77396971    -5.5595075      1.1596109     -4.3998966      1.339963       1023.4542    
      2700   0.77233516    -5.5604434      1.1571619     -4.4032815      1.4056537      1023.4542    
      2800   0.78516179    -5.5794529      1.1763796     -4.4030733      1.2253416      1023.4542    
      2900   0.78588535    -5.5788964      1.1774636     -4.4014327      1.2147737      1023.4542    
      3000   0.76709139    -5.5494137      1.1493053     -4.4001083      1.323377       1023.4542    
      3100   0.77394556    -5.5574836      1.1595747     -4.3979089      1.3421337      1023.4542    
      3200   0.76865976    -5.5509902      1.1516552     -4.3993351      1.3407391      1023.4542    
      3300   0.77284661    -5.5545149      1.1579282     -4.3965867      1.3104213      1023.4542    
      3400   0.77110995    -5.5509134      1.1553262     -4.3955872      1.3715224      1023.4542    
      3500   0.76795812    -5.5424087      1.1506039     -4.3918048      1.3629734      1023.4542    
      3600   0.76987102    -5.5463525      1.1534699     -4.3928826      1.4460764      1023.4542    
      3700   0.78583205    -5.5711678      1.1773838     -4.393784       1.2754973      1023.4542    
      3800   0.7435884     -5.5074302      1.1140917     -4.3933386      1.541822       1023.4542    
      3900   0.78054257    -5.5608481      1.1694587     -4.3913894      1.3500759      1023.4542    
      4000   0.76408945    -5.5365576      1.1448076     -4.3917499      1.458107       1023.4542    
      4100   0.76422089    -5.5372012      1.1450046     -4.3921966      1.4412247      1023.4542    
      4200   0.79089328    -5.5785172      1.1849668     -4.3935503      1.1887505      1023.4542    
      4300   0.76463411    -5.5397795      1.1456237     -4.3941559      1.4136774      1023.4542    
      4400   0.7711801     -5.5463736      1.1554313     -4.3909423      1.3891567      1023.4542    
      4500   0.78839341    -5.5726361      1.1812214     -4.3914147      1.2213943      1023.4542    
      4600   0.75340702    -5.5166799      1.1288025     -4.3878773      1.5265526      1023.4542    
      4700   0.78659314    -5.5615405      1.1785241     -4.3830164      1.2720895      1023.4542    
      4800   0.78182191    -5.5524781      1.1713755     -4.3811026      1.3551893      1023.4542    
      4900   0.79782721    -5.5749185      1.1953557     -4.3795628      1.2747882      1023.4542    
      5000   0.78950519    -5.5598305      1.1828871     -4.3769434      1.3746566      1023.4542    
      5100   0.79099697    -5.5682494      1.1851222     -4.3831272      1.2882831      1023.4542    
      5200   0.79911241    -5.576212       1.1972813     -4.3789308      1.277241       1023.4542    
      5300   0.80878764    -5.591443       1.2117773     -4.3796657      1.1885381      1023.4542    
      5400   0.76116591    -5.517104       1.1404274     -4.3766766      1.541156       1023.4542    
      5500   0.78949103    -5.5591418      1.1828659     -4.3762759      1.3033007      1023.4542    
      5600   0.79380836    -5.5680042      1.1893344     -4.3786698      1.3248076      1023.4542    
      5700   0.79033009    -5.5617854      1.184123      -4.3776624      1.3531989      1023.4542    
      5800   0.78429944    -5.5496144      1.1750875     -4.3745268      1.4584441      1023.4542    
      5900   0.79191671    -5.5621573      1.1865002     -4.3756571      1.3241787      1023.4542    
      6000   0.77989074    -5.5399865      1.1684821     -4.3715044      1.3730242      1023.4542    
      6100   0.77960008    -5.5412743      1.1680466     -4.3732277      1.4177742      1023.4542    
      6200   0.79732307    -5.5666935      1.1946004     -4.3720932      1.3403445      1023.4542    
      6300   0.77650594    -5.5341507      1.1634108     -4.3707399      1.416308       1023.4542    
      6400   0.77458158    -5.528861       1.1605276     -4.3683334      1.5120814      1023.4542    
      6500   0.77613049    -5.5296789      1.1628483     -4.3668306      1.4635276      1023.4542    
      6600   0.78635876    -5.5456439      1.1781729     -4.367471       1.393143       1023.4542    
      6700   0.78619228    -5.547714       1.1779235     -4.3697905      1.3830983      1023.4542    
      6800   0.79863759    -5.5639819      1.1965699     -4.367412       1.3263545      1023.4542    
      6900   0.78829809    -5.5493258      1.1810786     -4.3682472      1.436061       1023.4542    
      7000   0.77880046    -5.5330036      1.1668486     -4.366155       1.4834343      1023.4542    
      7100   0.80363299    -5.5692315      1.2040543     -4.3651772      1.2766894      1023.4542    
      7200   0.79651246    -5.5603292      1.1933859     -4.3669434      1.3073026      1023.4542    
      7300   0.80018206    -5.5643648      1.1988839     -4.3654809      1.4158174      1023.4542    
      7400   0.78373436    -5.5375324      1.1742409     -4.3632916      1.5227673      1023.4542    
      7500   0.8043683     -5.5692004      1.205156      -4.3640445      1.2660161      1023.4542    
      7600   0.77576367    -5.5235166      1.1622987     -4.3612179      1.5250479      1023.4542    
      7700   0.77449893    -5.5222268      1.1604038     -4.361823       1.5506786      1023.4542    
      7800   0.78302427    -5.5345447      1.173177      -4.3613677      1.4733815      1023.4542    
      7900   0.82106572    -5.594953       1.2301731     -4.3647798      1.1805066      1023.4542    
      8000   0.76385525    -5.5032617      1.1444567     -4.358805       1.5348104      1023.4542    
      8100   0.78372079    -5.5346264      1.1742206     -4.3604058      1.4914325      1023.4542    
      8200   0.80008413    -5.5601899      1.1987372     -4.3614527      1.3510642      1023.4542    
      8300   0.8013817     -5.5587951      1.2006813     -4.3581138      1.2997712      1023.4542    
      8400   0.78849793    -5.538111       1.181378      -4.3567331      1.4870977      1023.4542    
      8500   0.7953887     -5.5486209      1.1917022     -4.3569187      1.3832102      1023.4542    
      8600   0.79254298    -5.543621       1.1874385     -4.3561824      1.3863606      1023.4542    
      8700   0.81493532    -5.5747197      1.2209882     -4.3537315      1.286482       1023.4542    
      8800   0.79903179    -5.5475932      1.1971605     -4.3504327      1.3373181      1023.4542    
      8900   0.7945004     -5.5457852      1.1903713     -4.3554139      1.4964613      1023.4542    
      9000   0.78320067    -5.5270582      1.1734413     -4.3536169      1.502134       1023.4542    
      9100   0.78762113    -5.5323489      1.1800643     -4.3522846      1.3959356      1023.4542    
      9200   0.79509056    -5.5444609      1.1912555     -4.3532055      1.4000725      1023.4542    
      9300   0.8026616     -5.5525142      1.2025989     -4.3499153      1.4205377      1023.4542    
      9400   0.80031147    -5.5487258      1.1990778     -4.349648       1.3932582      1023.4542    
      9500   0.78209741    -5.5193773      1.1717883     -4.347589       1.5325742      1023.4542    
      9600   0.77151524    -5.5041408      1.1559334     -4.3482074      1.4952787      1023.4542    
      9700   0.77299707    -5.5015968      1.1581536     -4.3434432      1.568086       1023.4542    
      9800   0.77547873    -5.5022324      1.1618718     -4.3403607      1.544667       1023.4542    
      9900   0.78895363    -5.5232821      1.1820607     -4.3412214      1.4703114      1023.4542    
     10000   0.76349591    -5.4833153      1.1439184     -4.339397       1.7488356      1023.4542    
Loop time of 12.6909 on 1 procs for 10000 steps with 864 atoms

Performance: 1361607.475 tau/day, 787.967 timesteps/s, 680.804 katom-step/s
100.0% CPU use with 1 MPI tasks x 1 OpenMP threads

MPI task timing breakdown:
Section |  min time  |  avg time  |  max time  |%varavg| %total
---------------------------------------------------------------
Pair    | 4.8924     | 4.8924     | 4.8924     |   0.0 | 38.55
Neigh   | 7.2113     | 7.2113     | 7.2113     |   0.0 | 56.82
Comm    | 0.32939    | 0.32939    | 0.32939    |   0.0 |  2.60
Output  | 0.1162     | 0.1162     | 0.1162     |   0.0 |  0.92
Modify  | 0.087708   | 0.087708   | 0.087708   |   0.0 |  0.69
Other   |            | 0.05384    |            |       |  0.42

Nlocal:            864 ave         864 max         864 min
Histogram: 1 0 0 0 0 0 0 0 0 0
Nghost:           2340 ave        2340 max        2340 min
Histogram: 1 0 0 0 0 0 0 0 0 0
Neighs:          32454 ave       32454 max       32454 min
Histogram: 1 0 0 0 0 0 0 0 0 0

Total # of neighbors = 32454
Ave neighs/atom = 37.5625
Neighbor list builds = 3781
Dangerous builds = 0
Total wall time: 0:00:16
