LAMMPS (22 Jul 2025 - Update 3)
OMP_NUM_THREADS environment is not set. Defaulting to 1 thread.
  using 1 OpenMP thread(s) per MPI task
Lattice spacing in x,y,z = 1.6795962 1.6795962 1.6795962
Created orthogonal box = (0 0 0) to (10.077577 10.077577 10.077577)
  1 by 1 by 1 MPI processor grid
Created 864 atoms
  using lattice units in orthogonal box = (0 0 0) to (10.077577 10.077577 10.077577)
  create_atoms CPU = 0.002 seconds
Generated 0 of 0 mixed pair_coeff terms from geometric mixing rule
Neighbor list info ...
  update: every = 1 steps, delay = 0 steps, check = yes
  max neighbors/atom: 2000, page size: 100000
  master list distance cutoff = 2.8
  ghost atom cutoff = 2.8
  binsize = 1.4, bins = 8 8 8
  1 neighbor lists, perpetual/occasional/extra = 1 0 0
  (1) pair lj/cut, perpetual
      attributes: half, newton on
      pair build: half/bin/atomonly/newton
      stencil: half/bin/3d
      bin: standard
Setting up Verlet run ...
  Unit style    : lj
  Current step  : 0
  Time step     : 0.005
Per MPI rank memory allocation (min/avg/max) = 3.174 | 3.174 | 3.174 Mbytes
   Step          Temp          E_pair         E_mol          TotEng         Press     
         0   0.75          -6.7733681      0             -5.6496701     -5.6029001    
      5000   0.78164787    -5.5944743      0             -4.4233595      1.1714217    
Loop time of 3.54332 on 1 procs for 5000 steps with 864 atoms

Performance: 609597.011 tau/day, 1411.104 timesteps/s, 1.219 Matom-step/s
100.0% CPU use with 1 MPI tasks x 1 OpenMP threads

MPI task timing breakdown:
Section |  min time  |  avg time  |  max time  |%varavg| %total
---------------------------------------------------------------
Pair    | 2.3548     | 2.3548     | 2.3548     |   0.0 | 66.46
Neigh   | 0.9999     | 0.9999     | 0.9999     |   0.0 | 28.22
Comm    | 0.086255   | 0.086255   | 0.086255   |   0.0 |  2.43
Output  | 4.3855e-05 | 4.3855e-05 | 4.3855e-05 |   0.0 |  0.00
Modify  | 0.080035   | 0.080035   | 0.080035   |   0.0 |  2.26
Other   |            | 0.02227    |            |       |  0.63

Nlocal:            864 ave         864 max         864 min
Histogram: 1 0 0 0 0 0 0 0 0 0
Nghost:           2428 ave        2428 max        2428 min
Histogram: 1 0 0 0 0 0 0 0 0 0
Neighs:          32399 ave       32399 max       32399 min
Histogram: 1 0 0 0 0 0 0 0 0 0

Total # of neighbors = 32399
Ave neighs/atom = 37.498843
Neighbor list builds = 536
Dangerous builds = 0
Generated 0 of 0 mixed pair_coeff terms from geometric mixing rule
Setting up Verlet run ...
  Unit style    : lj
  Current step  : 0
  Time step     : 0.025
Per MPI rank memory allocation (min/avg/max) = 3.174 | 3.174 | 3.174 Mbytes
   Step          Temp          PotEng         KinEng         TotEng         Press          Volume    
         0   0.78164787    -5.5944743      1.1711148     -4.4233595      1.1714217      1023.4542    
        50   0.77124604    -5.5715872      1.1555301     -4.4160571      1.2433983      1023.4542    
       100   0.75821447    -5.5394693      1.1360054     -4.403464       1.4510496      1023.4542    
       150   0.76571076    -5.5457091      1.1472368     -4.3984723      1.4303593      1023.4542    
       200   0.77361159    -5.5433508      1.1590743     -4.3842764      1.3604122      1023.4542    
       250   0.77696633    -5.5263678      1.1641006     -4.3622672      1.4509765      1023.4542    
       300   0.76987521    -5.495089       1.1534762     -4.3416128      1.5960722      1023.4542    
       350   0.76132347    -5.4728552      1.1406635     -4.3321918      1.7117972      1023.4542    
       400   0.80390158    -5.5244843      1.2044567     -4.3200276      1.5225902      1023.4542    
       450   0.78467693    -5.4697284      1.1756531     -4.2940753      1.7470742      1023.4542    
       500   0.80610359    -5.493329       1.2077559     -4.2855731      1.7501495      1023.4542    
       550   0.80658292    -5.4774949      1.2084741     -4.2690208      1.7393317      1023.4542    
       600   0.84345083    -5.5242799      1.2637119     -4.260568       1.5120191      1023.4542    
       650   0.83282866    -5.470834       1.2477971     -4.2230369      1.7418756      1023.4542    
       700   0.83126693    -5.4468115      1.2454572     -4.2013543      1.9568627      1023.4542    
       750   0.85997136    -5.4727769      1.288464      -4.1843129      1.7016933      1023.4542    
       800   0.88080999    -5.4945305      1.3196858     -4.1748447      1.7310095      1023.4542    
       850   0.88514295    -5.4843139      1.3261777     -4.1581362      1.7179292      1023.4542    
       900   0.84256705    -5.403218       1.2623878     -4.1408302      2.1691136      1023.4542    
       950   0.89441934    -5.4455841      1.3400762     -4.1055079      1.9241304      1023.4542    
      1000   0.88396743    -5.4020399      1.3244165     -4.0776234      2.1583903      1023.4542    
      1050   0.9177766     -5.4126566      1.3750715     -4.0375851      2.1890919      1023.4542    
      1100   0.91512397    -5.3655819      1.3710972     -3.9944847      2.3228091      1023.4542    
      1150   0.92706299    -5.355413       1.388985      -3.966428       2.4040395      1023.4542    
      1200   0.93468737    -5.298063       1.4004083     -3.8976547      2.751833       1023.4542    
      1250   0.94930779    -5.2770118      1.4223136     -3.8546982      2.8535469      1023.4542    
      1300   0.96025583    -5.2299426      1.4387166     -3.7912259      2.9777617      1023.4542    
      1350   1.0374762     -5.3057127      1.5544132     -3.7512995      2.7525244      1023.4542    
      1400   1.0610546     -5.27215        1.5897398     -3.6824102      2.8545107      1023.4542    
      1450   1.0811393     -5.2160257      1.619832      -3.5961937      3.1020256      1023.4542    
      1500   1.1247803     -5.2210362      1.6852177     -3.5358186      3.2869586      1023.4542    
      1550   1.1699823     -5.1482173      1.7529422     -3.3952751      3.5575212      1023.4542    
ERROR: Lost atoms: original 864 current 42
For more information see https://docs.lammps.org/err0008 (src/src/thermo.cpp:526)
