LAMMPS (22 Jul 2025 - Update 3)
OMP_NUM_THREADS environment is not set. Defaulting to 1 thread.
  using 1 OpenMP thread(s) per MPI task
Lattice spacing in x,y,z = 2 2 2
Created orthogonal box = (0 0 0) to (12 12 12)
  1 by 1 by 1 MPI processor grid
Created 864 atoms
  using lattice units in orthogonal box = (0 0 0) to (12 12 12)
  create_atoms CPU = 0.001 seconds
Generated 0 of 0 mixed pair_coeff terms from geometric mixing rule
Neighbor list info ...
  update: every = 1 steps, delay = 0 steps, check = yes
  max neighbors/atom: 2000, page size: 100000
  master list distance cutoff = 2.8
  ghost atom cutoff = 2.8
  binsize = 1.4, bins = 9 9 9
  1 neighbor lists, perpetual/occasional/extra = 1 0 0
  (1) pair lj/cut, perpetual
      attributes: half, newton on
      pair build: half/bin/atomonly/newton
      stencil: half/bin/3d
      bin: standard
Setting up Verlet run ...
  Unit style    : lj
  Current step  : 0
  Time step     : 0.01
Per MPI rank memory allocation (min/avg/max) = 3.129 | 3.129 | 3.129 Mbytes
   Step          Temp          PotEng         KinEng         TotEng         Press          Volume    
         0   0.75          -3.0307637      1.1236979     -1.9070658     -2.2772393      1728         
        10   0.85048447    -3.1121637      1.2742502     -1.8379136     -2.0112655      1728         
        20   0.76228417    -2.9673722      1.1421028     -1.8252694     -0.3919541      1728         
        30   0.87755675    -3.1384771      1.3148116     -1.8236655     -0.26974143     1728         
        40   0.89743453    -3.1688603      1.3445938     -1.8242665     -0.17618451     1728         
        50   0.92028462    -3.2047144      1.3788292     -1.8258852     -0.16220118     1728         
        60   0.92831903    -3.218132       1.3908669     -1.8272651     -0.14629728     1728         
        70   0.95003229    -3.2521808      1.4233991     -1.8287818     -0.16947767     1728         
        80   0.96774922    -3.279796       1.4499437     -1.8298523     -0.15866984     1728         
        90   0.94458705    -3.2460411      1.4152407     -1.8308005     -0.032879558    1728         
       100   0.93571717    -3.2334755      1.4019512     -1.8315242      0.050792498    1728         
       110   0.9781621     -3.297562       1.465545      -1.8320171     -0.081860248    1728         
       120   0.970873      -3.2872673      1.454624      -1.8326433     -0.0098701135   1728         
       130   0.98571443    -3.3093875      1.4768603     -1.8325272     -0.034515506    1728         
       140   0.97138246    -3.2870731      1.4553873     -1.8316859      0.0047371834   1728         
       150   0.96201443    -3.2738462      1.4413515     -1.8324947      0.034536043    1728         
       160   0.98470397    -3.3091631      1.4753464     -1.8338167     -0.096467615    1728         
       170   0.9781005     -3.2990113      1.4654527     -1.8335586     -0.076094099    1728         
       180   0.96223194    -3.2754646      1.4416774     -1.8337872      0.023581451    1728         
       190   0.98542906    -3.3105025      1.4764328     -1.8340698     -0.037894216    1728         
       200   0.95541191    -3.2660177      1.4314592     -1.8345585      0.076100611    1728         
       210   0.98727078    -3.3126214      1.4791922     -1.8334292     -0.014303841    1728         
       220   0.98507031    -3.3089203      1.4758953     -1.833025      -0.02216204     1728         
       230   0.99482289    -3.3236285      1.4905072     -1.8331213     -0.069145347    1728         
       240   0.9898061     -3.3174908      1.4829907     -1.8345001     -0.046065344    1728         
       250   0.97832193    -3.300565       1.4657844     -1.8347806     -0.02769494     1728         
       260   0.98116744    -3.3045307      1.4700477     -1.8344829     -0.041613438    1728         
       270   0.99089469    -3.3184029      1.4846217     -1.8337812     -0.053006945    1728         
       280   0.96183392    -3.2752588      1.441081      -1.8341778      0.062962978    1728         
       290   0.99904374    -3.3294463      1.4968312     -1.8326152     -0.10153862     1728         
       300   0.97132934    -3.2892607      1.4553077     -1.833953      -0.0076933341   1728         
       310   0.98647635    -3.3121704      1.4780019     -1.8341685     -0.012190663    1728         
       320   0.98823538    -3.3143642      1.4806374     -1.8337269     -0.021258701    1728         
       330   0.98915053    -3.3151681      1.4820085     -1.8331595     -0.011122458    1728         
       340   0.9730984     -3.2899597      1.4579582     -1.8320015      0.024149282    1728         
       350   0.95329981    -3.2607876      1.4282947     -1.8324929      0.08638041     1728         
       360   0.97004896    -3.2869316      1.4533893     -1.8335423     -0.0024053556   1728         
       370   0.97712895    -3.2975213      1.463997      -1.8335243     -0.04656226     1728         
       380   0.96508128    -3.2803426      1.4459464     -1.8343961     -0.013162278    1728         
       390   0.97849134    -3.2998704      1.4660382     -1.8338321     -0.020729731    1728         
       400   0.99207875    -3.3210081      1.4863958     -1.8346124      0.013365958    1728         
       410   0.99866402    -3.3321468      1.4962622     -1.8358846      0.059029353    1728         
       420   0.9936657     -3.323996       1.4887734     -1.8352225      0.10569004     1728         
       430   1.0051342     -3.3415969      1.5059563     -1.8356406      0.0023619289   1728         
       440   0.98674886    -3.3143256      1.4784102     -1.8359155      0.010812263    1728         
       450   0.9778411     -3.3016528      1.465064      -1.8365888      0.051744549    1728         
       460   0.99501687    -3.3272362      1.4907979     -1.8364384      0.038577377    1728         
       470   0.98722462    -3.3146763      1.479123      -1.8355533      0.061713221    1728         
       480   0.99040765    -3.3186329      1.483892      -1.8347409     -0.02887587     1728         
       490   0.99882263    -3.3326049      1.4964999     -1.836105      -0.10648566     1728         
       500   0.99932071    -3.3337722      1.4972461     -1.8365261     -0.11680755     1728         
       510   0.99154183    -3.3220258      1.4855913     -1.8364345     -0.092025644    1728         
       520   0.98981542    -3.317976       1.4830047     -1.8349713     -0.060950456    1728         
       530   0.97145928    -3.2895636      1.4555024     -1.8340612      0.074432873    1728         
       540   1.0044802     -3.3399589      1.5049764     -1.8349825     -0.041658714    1728         
       550   0.96933997    -3.2871785      1.4523271     -1.8348515      0.086946923    1728         
       560   0.97395728    -3.2938096      1.459245      -1.8345646      0.025682082    1728         
       570   0.99831205    -3.3302559      1.4957349     -1.834521      -0.06407182     1728         
       580   1.0057449     -3.3423718      1.5068712     -1.8355006     -0.078183413    1728         
       590   0.99589786    -3.3276063      1.4921178     -1.8354885     -0.051910291    1728         
       600   0.99926325    -3.3332092      1.49716       -1.8360491     -0.10200255     1728         
       610   0.98773445    -3.3159848      1.4798869     -1.836098      -0.070413226    1728         
       620   0.9834081     -3.3093994      1.4734048     -1.8359945     -0.02453053     1728         
       630   0.9779237     -3.3013606      1.4651878     -1.8361728     -0.0051730036   1728         
       640   1.0162209     -3.3586952      1.522567      -1.8361282     -0.13808424     1728         
       650   0.97369393    -3.2952392      1.4588505     -1.8363888      0.071838227    1728         
       660   0.9846014     -3.3105293      1.4751927     -1.8353366      0.064512841    1728         
       670   0.98865239    -3.3167353      1.4812622     -1.8354731      0.10495458     1728         
       680   1.0046724     -3.3410278      1.5052644     -1.8357634      0.071338582    1728         
       690   0.98741637    -3.315275       1.4794103     -1.8358647      0.11583346     1728         
       700   1.0063823     -3.3443307      1.5078262     -1.8365045     -0.010216544    1728         
       710   1.0077104     -3.3463198      1.5098161     -1.8365037     -0.01993191     1728         
       720   0.98846664    -3.3176963      1.4809839     -1.8367124      0.038321154    1728         
       730   0.99046948    -3.3199353      1.4839847     -1.8359507      0.07048502     1728         
       740   0.98654554    -3.3140426      1.4781056     -1.835937       0.15061003     1728         
       750   1.0058911     -3.3432922      1.5070903     -1.8362019      0.090148913    1728         
       760   1.0172494     -3.3609232      1.524108      -1.8368152     -0.014328101    1728         
       770   1.0051145     -3.3434782      1.5059268     -1.8375514      0.018392898    1728         
       780   1.0124851     -3.3550425      1.5169699     -1.8380726      0.08041747     1728         
       790   1.0048981     -3.3435588      1.5056025     -1.8379563      0.16337257     1728         
       800   1.0082192     -3.3489206      1.5105784     -1.8383422      0.10306626     1728         
       810   0.98593067    -3.3143085      1.4771843     -1.8371241      0.13967878     1728         
       820   1.0064079     -3.3432245      1.5078646     -1.8353598     -0.0019456296   1728         
       830   0.99379925    -3.3242945      1.4889735     -1.835321       0.051905664    1728         
       840   1.0065314     -3.3433918      1.5080497     -1.8353421     -0.042191579    1728         
       850   1.0012545     -3.3351783      1.5001435     -1.8350348     -0.071993737    1728         
       860   0.99060288    -3.3191112      1.4841845     -1.8349267     -0.016086064    1728         
       870   1.0070987     -3.3441271      1.5088997     -1.8352275     -0.075569235    1728         
       880   0.9857596     -3.3117164      1.476928      -1.8347884      0.042655845    1728         
       890   0.9589457     -3.2706562      1.4367537     -1.8339025      0.12381636     1728         
       900   0.97760111    -3.2981094      1.4647044     -1.8334049     -0.038649657    1728         
       910   0.98667776    -3.3123932      1.4783037     -1.8340895     -0.11017436     1728         
       920   0.99227404    -3.3212272      1.4866884     -1.8345389     -0.10362546     1728         
       930   0.98795769    -3.316019       1.4802213     -1.8357976     -0.0055605937   1728         
       940   1.0076835     -3.3448283      1.5097758     -1.8350525     -0.063931251    1728         
       950   1.0183155     -3.3603772      1.5257054     -1.8346719     -0.11272803     1728         
       960   0.98136104    -3.3047749      1.4703378     -1.8344371      0.10433697     1728         
       970   1.0078191     -3.3453573      1.509979      -1.8353783      0.031062049    1728         
       980   0.99327371    -3.3235542      1.4881861     -1.8353681      0.020052181    1728         
       990   1.0158576     -3.35683        1.5220228     -1.8348072     -0.085922755    1728         
      1000   1.008061      -3.3455693      1.5103413     -1.835228      -0.054823575    1728         
      1010   0.99215649    -3.3215198      1.4865122     -1.8350075      0.027837681    1728         
      1020   0.98922753    -3.3162865      1.4821239     -1.8341626      0.059728078    1728         
      1030   1.0086387     -3.3450421      1.5112069     -1.8338352     -0.018274961    1728         
      1040   1.0040041     -3.3379051      1.504263      -1.833642      -0.022841329    1728         
      1050   1.0031309     -3.3374743      1.5029549     -1.8345195     -0.078505678    1728         
      1060   0.97543497    -3.2958361      1.461459      -1.8343771      0.033275938    1728         
      1070   0.97910732    -3.3016385      1.4669611     -1.8346774      0.043894713    1728         
      1080   0.98333119    -3.3079275      1.4732896     -1.8346378      0.040535178    1728         
      1090   0.97683334    -3.2981628      1.4635541     -1.8346086      0.036955898    1728         
      1100   0.99082691    -3.3181471      1.4845202     -1.8336269     -0.066454123    1728         
      1110   0.97422156    -3.2925494      1.459641      -1.8329084      0.0091674955   1728         
      1120   0.96759498    -3.2836857      1.4497126     -1.833973       0.10622541     1728         
      1130   0.98670934    -3.3136273      1.478351      -1.8352764      0.011336705    1728         
      1140   0.99105619    -3.3214047      1.4848637     -1.836541      -0.038907623    1728         
      1150   1.0038767     -3.3413723      1.5040721     -1.8373002     -0.10309004     1728         
      1160   1.0100163     -3.3506299      1.513271      -1.8373589     -0.14205646     1728         
      1170   0.99218714    -3.3238593      1.4865582     -1.8373012      0.0079844047   1728         
      1180   0.9902396     -3.3195418      1.4836402     -1.8359015      0.023508451    1728         
      1190   1.0012358     -3.3375056      1.5001154     -1.8373902      0.027934618    1728         
      1200   1.0007548     -3.3365474      1.4993948     -1.8371526      0.023673085    1728         
      1210   0.98949033    -3.3194513      1.4825176     -1.8369337      0.080865982    1728         
      1220   0.99801756    -3.3327898      1.4952937     -1.8374961      0.080807819    1728         
      1230   0.98756398    -3.3173654      1.4796314     -1.8377339      0.13304542     1728         
      1240   1.0122659     -3.354543       1.5166414     -1.8379016      0.048884527    1728         
      1250   1.0038879     -3.341781       1.504089      -1.8376921      0.060662484    1728         
      1260   1.0014784     -3.3377185      1.5004789     -1.8372396      0.051356013    1728         
      1270   1.0070607     -3.3473437      1.5088427     -1.838501       0.015525255    1728         
      1280   0.99775418    -3.3308957      1.4948991     -1.8359966     -0.016514768    1728         
      1290   1.0029154     -3.3396636      1.502632      -1.8370316     -0.06604676     1728         
      1300   0.98939992    -3.3195245      1.4823822     -1.8371423      0.0023659588   1728         
      1310   0.99447571    -3.3265863      1.4899871     -1.8365992     -0.045442261    1728         
      1320   0.99339939    -3.3253476      1.4883744     -1.8369731      0.0099009605   1728         
      1330   0.98654002    -3.3152134      1.4780973     -1.8371161      0.092992246    1728         
      1340   0.99097415    -3.3215422      1.4847408     -1.8368014      0.043977603    1728         
      1350   0.97809057    -3.3018445      1.4654378     -1.8364068      0.12486317     1728         
      1360   0.98584211    -3.313408       1.4770516     -1.8363563      0.13675534     1728         
      1370   1.0066288     -3.3454741      1.5081956     -1.8372785      0.068102137    1728         
      1380   0.99140116    -3.3221483      1.4853806     -1.8367678      0.14351497     1728         
      1390   0.99904067    -3.3351637      1.4968266     -1.8383371      0.10551159     1728         
      1400   0.99122019    -3.3223527      1.4851094     -1.8372433      0.14146929     1728         
      1410   1.0160305     -3.3594759      1.5222818     -1.8371942      0.019823034    1728         
      1420   1.0072798     -3.3465107      1.5091709     -1.8373398      0.033299388    1728         
      1430   1.0016311     -3.3386151      1.5007077     -1.8379075     -0.0054258288   1728         
      1440   0.99763468    -3.3333067      1.49472       -1.8385867     -0.030601957    1728         
      1450   1.0052402     -3.3450123      1.506115      -1.8388973      0.0064401164   1728         
      1460   0.99858712    -3.3340656      1.496147      -1.8379186      0.097648756    1728         
      1470   1.0124407     -3.3559748      1.5169034     -1.8390714      0.071490326    1728         
      1480   1.0112122     -3.3530277      1.5150627     -1.837965       0.075187514    1728         
      1490   1.0074422     -3.3480001      1.5094143     -1.8385858      0.10074803     1728         
      1500   0.97772205    -3.3020976      1.4648856     -1.8372119      0.17655573     1728         
      1510   0.99150391    -3.3217185      1.4855345     -1.836184       0.065593951    1728         
      1520   0.99369377    -3.3246893      1.4888155     -1.8358738      0.0046370497   1728         
      1530   0.99868035    -3.3322319      1.4962867     -1.8359452     -0.080419265    1728         
      1540   0.97352765    -3.293936       1.4586013     -1.8353347     -0.0028714298   1728         
      1550   0.99654123    -3.3282834      1.4930817     -1.8352016     -0.10123915     1728         
      1560   0.98094335    -3.305861       1.469712      -1.836149      -0.0053547818   1728         
      1570   0.97322995    -3.2932088      1.4581553     -1.8350535      0.027986556    1728         
      1580   0.98443596    -3.3093441      1.4749448     -1.8343992     -0.0062880903   1728         
      1590   0.98996772    -3.3179663      1.4832329     -1.8347335     -0.047412704    1728         
      1600   0.9995653     -3.3324375      1.4976126     -1.8348249     -0.074876346    1728         
      1610   0.97470465    -3.2954842      1.4603648     -1.8351194      0.0099573725   1728         
      1620   0.98923651    -3.3176091      1.4821373     -1.8354717     -0.085986893    1728         
      1630   0.95701942    -3.2691446      1.4338676     -1.835277       0.01582128     1728         
      1640   0.97635644    -3.2983404      1.4628396     -1.8355008     -0.038285492    1728         
      1650   0.96569455    -3.281826       1.4468653     -1.8349607     -0.015978294    1728         
      1660   0.98146082    -3.3062102      1.4704873     -1.8357229     -0.04887813     1728         
      1670   1.0100926     -3.3483028      1.5133853     -1.8349175     -0.10432291     1728         
      1680   1.0015924     -3.335076       1.5006497     -1.8344263     -0.023876759    1728         
      1690   1.0016087     -3.3358672      1.5006742     -1.8351931      0.0058854658   1728         
      1700   0.97738364    -3.2989941      1.4643786     -1.8346155      0.091686531    1728         
      1710   0.99368566    -3.323196       1.4888033     -1.8343926      0.0074834126   1728         
      1720   0.99031856    -3.3189417      1.4837585     -1.8351832      0.0030634143   1728         
      1730   1.0121352     -3.3513189      1.5164456     -1.8348733     -0.099787454    1728         
      1740   0.98840389    -3.3159946      1.4808899     -1.8351047     -0.044199022    1728         
      1750   0.99031735    -3.3181684      1.4837567     -1.8344117     -0.08367449     1728         
      1760   0.9805089     -3.3027666      1.4690611     -1.8337055     -0.068189231    1728         
      1770   0.94956798    -3.2561769      1.4227034     -1.8334735      0.09184037     1728         
      1780   0.98703703    -3.3129181      1.4788419     -1.8340762     -0.020614478    1728         
      1790   0.97363436    -3.2932022      1.4587612     -1.834441       0.051080414    1728         
      1800   1.0020883     -3.3362787      1.5013927     -1.834886      -0.088358034    1728         
      1810   0.99232062    -3.3208859      1.4867582     -1.8341277     -0.051308333    1728         
      1820   1.0044432     -3.3398115      1.504921      -1.8348905     -0.062568752    1728         
      1830   0.96650389    -3.2820999      1.4480779     -1.834022       0.092537712    1728         
      1840   0.99635577    -3.3273368      1.4928039     -1.834533      -0.081384133    1728         
      1850   0.97435457    -3.2941688      1.4598403     -1.8343285     -0.047732178    1728         
      1860   0.95993382    -3.2732077      1.4382342     -1.8349735     -0.017145938    1728         
      1870   0.97949224    -3.3012513      1.4675379     -1.8337135     -0.057440183    1728         
      1880   0.97384905    -3.2936911      1.4590829     -1.8346082     -0.022024744    1728         
      1890   0.98444816    -3.309039       1.4749631     -1.8340759     -0.031470228    1728         
      1900   1.00226       -3.3368848      1.50165       -1.8352348     -0.084795907    1728         
      1910   0.99057546    -3.320355       1.4841434     -1.8362116     -0.0072849012   1728         
      1920   0.98512919    -3.3114296      1.4759835     -1.8354461      0.057488893    1728         
      1930   1.0049696     -3.3420733      1.5057096     -1.8363636     -0.038598609    1728         
      1940   0.96926987    -3.2882022      1.452222      -1.8359802      0.06925683     1728         
      1950   0.99268296    -3.3224729      1.487301      -1.8351719     -0.022189529    1728         
      1960   0.99545297    -3.3277619      1.4914512     -1.8363106     -0.018274383    1728         
      1970   1.0043709     -3.3422088      1.5048127     -1.8373961     -0.025832201    1728         
      1980   1.0062603     -3.3453877      1.5076435     -1.8377443      0.035594535    1728         
      1990   1.0076819     -3.3469303      1.5097733     -1.837157       0.051757145    1728         
      2000   1.0203384     -3.3668643      1.5287362     -1.8381281      0.044732196    1728         
Loop time of 1.78773 on 1 procs for 2000 steps with 864 atoms

Performance: 966590.285 tau/day, 1118.739 timesteps/s, 966.590 katom-step/s
100.0% CPU use with 1 MPI tasks x 1 OpenMP threads

MPI task timing breakdown:
Section |  min time  |  avg time  |  max time  |%varavg| %total
---------------------------------------------------------------
Pair    | 0.68633    | 0.68633    | 0.68633    |   0.0 | 38.39
Neigh   | 0.77144    | 0.77144    | 0.77144    |   0.0 | 43.15
Comm    | 0.044316   | 0.044316   | 0.044316   |   0.0 |  2.48
Output  | 0.25864    | 0.25864    | 0.25864    |   0.0 | 14.47
Modify  | 0.017688   | 0.017688   | 0.017688   |   0.0 |  0.99
Other   |            | 0.009315   |            |       |  0.52

Nlocal:            864 ave         864 max         864 min
Histogram: 1 0 0 0 0 0 0 0 0 0
Nghost:           1751 ave        1751 max        1751 min
Histogram: 1 0 0 0 0 0 0 0 0 0
Neighs:          20036 ave       20036 max       20036 min
Histogram: 1 0 0 0 0 0 0 0 0 0

Total # of neighbors = 20036
Ave neighs/atom = 23.189815
Neighbor list builds = 487
Dangerous builds = 0
Total wall time: 0:00:01
