LAMMPS (22 Jul 2025 - Update 3)
OMP_NUM_THREADS environment is not set. Defaulting to 1 thread.
  using 1 OpenMP thread(s) per MPI task
Lattice spacing in x,y,z = 1.6795962 1.6795962 1.6795962
Created orthogonal box = (0 0 0) to (10.077577 10.077577 10.077577)
  1 by 1 by 1 MPI processor grid
Created 864 atoms
  using lattice units in orthogonal box = (0 0 0) to (10.077577 10.077577 10.077577)
  create_atoms CPU = 0.001 seconds
Generated 0 of 0 mixed pair_coeff terms from geometric mixing rule
Neighbor list info ...
  update: every = 1 steps, delay = 0 steps, check = yes
  max neighbors/atom: 2000, page size: 100000
  master list distance cutoff = 2.8
  ghost atom cutoff = 2.8
  binsize = 1.4, bins = 8 8 8
  1 neighbor lists, perpetual/occasional/extra = 1 0 0
  (1) pair lj/cut, perpetual
      attributes: half, newton on
      pair build: half/bin/atomonly/newton
      stencil: half/bin/3d
      bin: standard
Setting up Verlet run ...
  Unit style    : lj
  Current step  : 0
  Time step     : 0.005
Per MPI rank memory allocation (min/avg/max) = 3.174 | 3.174 | 3.174 Mbytes
   Step          Temp          E_pair         E_mol          TotEng         Press     
         0   0.75          -6.7733681      0             -5.6496701     -5.6029001    
      5000   0.78164787    -5.5944743      0             -4.4233595      1.1714217    
Loop time of 3.54502 on 1 procs for 5000 steps with 864 atoms

Performance: 609305.613 tau/day, 1410.430 timesteps/s, 1.219 Matom-step/s
99.9% CPU use with 1 MPI tasks x 1 OpenMP threads

MPI task timing breakdown:
Section |  min time  |  avg time  |  max time  |%varavg| %total
---------------------------------------------------------------
Pair    | 2.3572     | 2.3572     | 2.3572     |   0.0 | 66.49
Neigh   | 0.99842    | 0.99842    | 0.99842    |   0.0 | 28.16
Comm    | 0.086368   | 0.086368   | 0.086368   |   0.0 |  2.44
Output  | 3.8492e-05 | 3.8492e-05 | 3.8492e-05 |   0.0 |  0.00
Modify  | 0.080862   | 0.080862   | 0.080862   |   0.0 |  2.28
Other   |            | 0.02215    |            |       |  0.62

Nlocal:            864 ave         864 max         864 min
Histogram: 1 0 0 0 0 0 0 0 0 0
Nghost:           2428 ave        2428 max        2428 min
Histogram: 1 0 0 0 0 0 0 0 0 0
Neighs:          32399 ave       32399 max       32399 min
Histogram: 1 0 0 0 0 0 0 0 0 0

Total # of neighbors = 32399
Ave neighs/atom = 37.498843
Neighbor list builds = 536
Dangerous builds = 0
Generated 0 of 0 mixed pair_coeff terms from geometric mixing rule
Setting up Verlet run ...
  Unit style    : lj
  Current step  : 0
  Time step     : 0.005
Per MPI rank memory allocation (min/avg/max) = 3.174 | 3.174 | 3.174 Mbytes
   Step          Temp          PotEng         KinEng         TotEng         Press          Volume    
         0   0.78164787    -5.5944743      1.1711148     -4.4233595      1.1714217      1023.4542    
       100   0.79464797    -5.613392       1.1905924     -4.4227997      1.1198614      1023.4542    
       200   0.7409089     -5.5328563      1.1100771     -4.4227792      1.4678558      1023.4542    
       300   0.78247137    -5.5963067      1.1723486     -4.4239581      1.180518       1023.4542    
       400   0.79206649    -5.6101716      1.1867246     -4.423447       1.140852       1023.4542    
       500   0.76737469    -5.5740997      1.1497298     -4.4243699      1.2472746      1023.4542    
       600   0.76846168    -5.5727848      1.1513584     -4.4214264      1.3042348      1023.4542    
       700   0.78108876    -5.593778       1.1702771     -4.4235009      1.1114002      1023.4542    
       800   0.79426467    -5.6144052      1.1900181     -4.4243871      1.1033907      1023.4542    
       900   0.77948694    -5.5913383      1.1678771     -4.4234612      1.1677129      1023.4542    
      1000   0.78234018    -5.5961893      1.172152      -4.4240372      1.1115423      1023.4542    
      1100   0.81076423    -5.6384132      1.2147388     -4.4236744      0.89188048     1023.4542    
      1200   0.76714987    -5.5731479      1.149393      -4.4237549      1.2241845      1023.4542    
      1300   0.79563528    -5.6162987      1.1920716     -4.4242271      1.0407755      1023.4542    
      1400   0.75416489    -5.5532297      1.129938      -4.4232917      1.3313123      1023.4542    
      1500   0.75051671    -5.5474296      1.1244721     -4.4229575      1.3358956      1023.4542    
      1600   0.77029583    -5.5767403      1.1541064     -4.4226339      1.232022       1023.4542    
      1700   0.76041544    -5.5628124      1.139303      -4.4235094      1.2671681      1023.4542    
      1800   0.77710392    -5.5871676      1.1643067     -4.4228609      1.2269777      1023.4542    
      1900   0.80094732    -5.6217164      1.2000304     -4.421686       1.0699068      1023.4542    
      2000   0.78742868    -5.6040228      1.179776      -4.4242469      1.1172079      1023.4542    
      2100   0.74915185    -5.5452417      1.1224272     -4.4228145      1.3352087      1023.4542    
      2200   0.75709615    -5.555395       1.1343298     -4.4210652      1.3719313      1023.4542    
      2300   0.76607165    -5.5699455      1.1477775     -4.422168       1.3350747      1023.4542    
      2400   0.78164774    -5.5938293      1.1711146     -4.4227147      1.1959274      1023.4542    
      2500   0.75725672    -5.5557431      1.1345704     -4.4211727      1.3767237      1023.4542    
      2600   0.79450291    -5.6150438      1.190375      -4.4246688      1.0140815      1023.4542    
      2700   0.76159974    -5.5634035      1.1410774     -4.4223261      1.298444       1023.4542    
      2800   0.77638199    -5.5853742      1.1632251     -4.4221491      1.3470781      1023.4542    
      2900   0.78024309    -5.5916891      1.16901       -4.4226791      1.2566717      1023.4542    
      3000   0.78024895    -5.5916297      1.1690188     -4.4226109      1.235762       1023.4542    
      3100   0.7719664     -5.5778371      1.1566094     -4.4212277      1.2974503      1023.4542    
      3200   0.79683708    -5.6174206      1.1938722     -4.4235484      1.0501977      1023.4542    
      3300   0.76728311    -5.5719883      1.1495926     -4.4223958      1.2200862      1023.4542    
      3400   0.76237835    -5.5648487      1.142244      -4.4226047      1.3127711      1023.4542    
      3500   0.7837478     -5.59722        1.174261      -4.4229589      1.1262882      1023.4542    
      3600   0.7687045     -5.5744469      1.1517222     -4.4227247      1.2291045      1023.4542    
      3700   0.77295269    -5.5814725      1.1580871     -4.4233854      1.2219473      1023.4542    
      3800   0.76863324    -5.5726591      1.1516154     -4.4210436      1.2805225      1023.4542    
      3900   0.76401109    -5.567426       1.1446902     -4.4227358      1.2842002      1023.4542    
      4000   0.79073396    -5.6080823      1.1847281     -4.4233542      1.1168243      1023.4542    
      4100   0.7787989     -5.5887101      1.1668463     -4.4218638      1.2941992      1023.4542    
      4200   0.78412109    -5.5982222      1.1748203     -4.4234019      1.1159199      1023.4542    
      4300   0.79006548    -5.608817       1.1837266     -4.4250904      1.0577885      1023.4542    
      4400   0.77174217    -5.57916        1.1562734     -4.4228866      1.2562209      1023.4542    
      4500   0.80371377    -5.628115       1.2041753     -4.4239397      1.0364364      1023.4542    
      4600   0.75038253    -5.5479866      1.1242711     -4.4237156      1.3444881      1023.4542    
      4700   0.76997893    -5.5757165      1.1536316     -4.4220849      1.2767048      1023.4542    
      4800   0.76328448    -5.5667529      1.1436016     -4.4231513      1.3348643      1023.4542    
      4900   0.77689302    -5.5873271      1.1639908     -4.4233364      1.1400171      1023.4542    
      5000   0.76905523    -5.573827       1.1522477     -4.4215794      1.3103386      1023.4542    
      5100   0.77768489    -5.5870094      1.1651772     -4.4218322      1.2467206      1023.4542    
      5200   0.76288638    -5.5664507      1.1430051     -4.4234456      1.3345733      1023.4542    
      5300   0.75698033    -5.5576794      1.1341563     -4.4235231      1.3193231      1023.4542    
      5400   0.79053605    -5.6059335      1.1844316     -4.4215019      1.1375771      1023.4542    
      5500   0.74948875    -5.5458793      1.1229319     -4.4229474      1.3627715      1023.4542    
      5600   0.77445556    -5.582338       1.1603388     -4.4219992      1.2034768      1023.4542    
      5700   0.76057269    -5.5640237      1.1395386     -4.4244851      1.3206855      1023.4542    
      5800   0.79288459    -5.6101461      1.1879503     -4.4221958      1.1660383      1023.4542    
      5900   0.75617042    -5.5558228      1.1329428     -4.42288        1.3225242      1023.4542    
      6000   0.78455937    -5.5982163      1.175477      -4.4227394      1.1429833      1023.4542    
      6100   0.77381324    -5.5823353      1.1593764     -4.4229589      1.1800118      1023.4542    
      6200   0.75978414    -5.5616491      1.1383571     -4.423292       1.3185436      1023.4542    
      6300   0.75621554    -5.5538914      1.1330104     -4.420881       1.3827504      1023.4542    
      6400   0.76225795    -5.5647353      1.1420636     -4.4226717      1.3324181      1023.4542    
      6500   0.76524857    -5.5682115      1.1465443     -4.4216672      1.2950426      1023.4542    
      6600   0.77632547    -5.584255       1.1631404     -4.4211146      1.1987135      1023.4542    
      6700   0.77452442    -5.5828946      1.160442      -4.4224526      1.1715452      1023.4542    
      6800   0.77333308    -5.5810989      1.158657      -4.4224419      1.252009       1023.4542    
      6900   0.77071535    -5.5788492      1.154735      -4.4241142      1.2927114      1023.4542    
      7000   0.76145678    -5.5628856      1.1408632     -4.4220224      1.2315086      1023.4542    
      7100   0.76236845    -5.5656408      1.1422291     -4.4234117      1.2392187      1023.4542    
      7200   0.74810466    -5.5423859      1.1208582     -4.4215277      1.3939561      1023.4542    
      7300   0.73840109    -5.5291619      1.1063197     -4.4228422      1.5333872      1023.4542    
      7400   0.80039476    -5.622192       1.1992026     -4.4229894      1.0528819      1023.4542    
      7500   0.78688512    -5.6032466      1.1789616     -4.424285       1.1663345      1023.4542    
      7600   0.77491287    -5.5838429      1.161024      -4.4228189      1.1479408      1023.4542    
      7700   0.78480481    -5.59882        1.1758447     -4.4229753      1.125896       1023.4542    
      7800   0.76419135    -5.5669759      1.1449603     -4.4220156      1.2747279      1023.4542    
      7900   0.73654001    -5.5258749      1.1035313     -4.4223436      1.4341827      1023.4542    
      8000   0.78320601    -5.594886       1.1734493     -4.4214367      1.1983827      1023.4542    
      8100   0.77802611    -5.5879772      1.1656884     -4.4222887      1.2240827      1023.4542    
      8200   0.79335799    -5.6133902      1.1886596     -4.4247305      1.0646367      1023.4542    
      8300   0.76151939    -5.5636733      1.140957      -4.4227163      1.3686938      1023.4542    
      8400   0.76897626    -5.5750641      1.1521294     -4.4229348      1.2660048      1023.4542    
      8500   0.74930993    -5.5462996      1.122664      -4.4236356      1.3133804      1023.4542    
      8600   0.78861254    -5.604343       1.1815497     -4.4227933      1.119035       1023.4542    
      8700   0.77800485    -5.5883153      1.1656566     -4.4226588      1.1543952      1023.4542    
      8800   0.77793377    -5.5886591      1.1655501     -4.423109       1.2293849      1023.4542    
      8900   0.74536171    -5.5382114      1.1167485     -4.4214628      1.4325425      1023.4542    
      9000   0.79393588    -5.6122372      1.1895255     -4.4227117      1.1010881      1023.4542    
      9100   0.77261882    -5.5813375      1.1575869     -4.4237506      1.2165855      1023.4542    
      9200   0.77885271    -5.5881368      1.1669269     -4.4212099      1.2471813      1023.4542    
      9300   0.76371788    -5.566291       1.1442509     -4.4220401      1.3196432      1023.4542    
      9400   0.77311038    -5.5811669      1.1583234     -4.4228435      1.2450854      1023.4542    
      9500   0.77995547    -5.5911014      1.1685791     -4.4225223      1.0661036      1023.4542    
      9600   0.82002256    -5.6521583      1.2286102     -4.4235481      0.90434911     1023.4542    
      9700   0.77453185    -5.5844354      1.1604531     -4.4239823      1.1643498      1023.4542    
      9800   0.76560103    -5.5705935      1.1470724     -4.4235211      1.3283644      1023.4542    
      9900   0.76733009    -5.5713986      1.149663      -4.4217357      1.2840941      1023.4542    
     10000   0.77734875    -5.5882159      1.1646736     -4.4235423      1.2069961      1023.4542    
Loop time of 8.29306 on 1 procs for 10000 steps with 864 atoms

Performance: 520917.744 tau/day, 1205.828 timesteps/s, 1.042 Matom-step/s
88.1% CPU use with 1 MPI tasks x 1 OpenMP threads

MPI task timing breakdown:
Section |  min time  |  avg time  |  max time  |%varavg| %total
---------------------------------------------------------------
Pair    | 4.7804     | 4.7804     | 4.7804     |   0.0 | 57.64
Neigh   | 2.0987     | 2.0987     | 2.0987     |   0.0 | 25.31
Comm    | 0.17512    | 0.17512    | 0.17512    |   0.0 |  2.11
Output  | 1.1063     | 1.1063     | 1.1063     |   0.0 | 13.34
Modify  | 0.087956   | 0.087956   | 0.087956   |   0.0 |  1.06
Other   |            | 0.04456    |            |       |  0.54

Nlocal:            864 ave         864 max         864 min
Histogram: 1 0 0 0 0 0 0 0 0 0
Nghost:           2424 ave        2424 max        2424 min
Histogram: 1 0 0 0 0 0 0 0 0 0
Neighs:          32404 ave       32404 max       32404 min
Histogram: 1 0 0 0 0 0 0 0 0 0

Total # of neighbors = 32404
Ave neighs/atom = 37.50463
Neighbor list builds = 1120
Dangerous builds = 0
Total wall time: 0:00:11
