LAMMPS (22 Jul 2025 - Update 3)
OMP_NUM_THREADS environment is not set. Defaulting to 1 thread.
  using 1 OpenMP thread(s) per MPI task
Lattice spacing in x,y,z = 1.6795962 1.6795962 1.6795962
Created orthogonal box = (0 0 0) to (10.077577 10.077577 10.077577)
  1 by 1 by 1 MPI processor grid
Created 864 atoms
  using lattice units in orthogonal box = (0 0 0) to (10.077577 10.077577 10.077577)
  create_atoms CPU = 0.001 seconds
Generated 0 of 0 mixed pair_coeff terms from geometric mixing rule
Neighbor list info ...
  update: every = 1 steps, delay = 0 steps, check = yes
  max neighbors/atom: 2000, page size: 100000
  master list distance cutoff = 2.8
  ghost atom cutoff = 2.8
  binsize = 1.4, bins = 8 8 8
  1 neighbor lists, perpetual/occasional/extra = 1 0 0
  (1) pair lj/cut, perpetual
      attributes: half, newton on
      pair build: half/bin/atomonly/newton
      stencil: half/bin/3d
      bin: standard
Setting up Verlet run ...
  Unit style    : lj
  Current step  : 0
  Time step     : 0.005
Per MPI rank memory allocation (min/avg/max) = 3.174 | 3.174 | 3.174 Mbytes
   Step          Temp          E_pair         E_mol          TotEng         Press     
         0   0.75          -6.7733681      0             -5.6496701     -5.6029001    
      5000   0.78164787    -5.5944743      0             -4.4233595      1.1714217    
Loop time of 3.54997 on 1 procs for 5000 steps with 864 atoms

Performance: 608456.391 tau/day, 1408.464 timesteps/s, 1.217 Matom-step/s
99.9% CPU use with 1 MPI tasks x 1 OpenMP threads

MPI task timing breakdown:
Section |  min time  |  avg time  |  max time  |%varavg| %total
---------------------------------------------------------------
Pair    | 2.3643     | 2.3643     | 2.3643     |   0.0 | 66.60
Neigh   | 0.99624    | 0.99624    | 0.99624    |   0.0 | 28.06
Comm    | 0.086193   | 0.086193   | 0.086193   |   0.0 |  2.43
Output  | 4.5417e-05 | 4.5417e-05 | 4.5417e-05 |   0.0 |  0.00
Modify  | 0.081116   | 0.081116   | 0.081116   |   0.0 |  2.28
Other   |            | 0.02211    |            |       |  0.62

Nlocal:            864 ave         864 max         864 min
Histogram: 1 0 0 0 0 0 0 0 0 0
Nghost:           2428 ave        2428 max        2428 min
Histogram: 1 0 0 0 0 0 0 0 0 0
Neighs:          32399 ave       32399 max       32399 min
Histogram: 1 0 0 0 0 0 0 0 0 0

Total # of neighbors = 32399
Ave neighs/atom = 37.498843
Neighbor list builds = 536
Dangerous builds = 0
Generated 0 of 0 mixed pair_coeff terms from geometric mixing rule
Setting up Verlet run ...
  Unit style    : lj
  Current step  : 0
  Time step     : 0.035
Per MPI rank memory allocation (min/avg/max) = 3.174 | 3.174 | 3.174 Mbytes
   Step          Temp          PotEng         KinEng         TotEng         Press          Volume    
         0   0.78164787    -5.5944743      1.1711148     -4.4233595      1.1714217      1023.4542    
ERROR: Lost atoms: original 864 current 30
For more information see https://docs.lammps.org/err0008 (src/src/thermo.cpp:526)
