LAMMPS (22 Jul 2025 - Update 3)
OMP_NUM_THREADS environment is not set. Defaulting to 1 thread.
  using 1 OpenMP thread(s) per MPI task
Lattice spacing in x,y,z = 2 2 2
Created orthogonal box = (0 0 0) to (12 12 12)
  1 by 1 by 1 MPI processor grid
Created 864 atoms
  using lattice units in orthogonal box = (0 0 0) to (12 12 12)
  create_atoms CPU = 0.001 seconds
Generated 0 of 0 mixed pair_coeff terms from geometric mixing rule
Neighbor list info ...
  update: every = 1 steps, delay = 0 steps, check = yes
  max neighbors/atom: 2000, page size: 100000
  master list distance cutoff = 2.8
  ghost atom cutoff = 2.8
  binsize = 1.4, bins = 9 9 9
  1 neighbor lists, perpetual/occasional/extra = 1 0 0
  (1) pair lj/cut, perpetual
      attributes: half, newton on
      pair build: half/bin/atomonly/newton
      stencil: half/bin/3d
      bin: standard
Setting up Verlet run ...
  Unit style    : lj
  Current step  : 0
  Time step     : 0.005
Per MPI rank memory allocation (min/avg/max) = 3.129 | 3.129 | 3.129 Mbytes
   Step          Temp          E_pair         E_mol          TotEng         Press     
         0   0.75          -3.0307637      0             -1.9070658     -2.2772393    
      5000   0.97430404    -3.4429097      0             -1.9831451     -0.14369475   
Loop time of 2.70276 on 1 procs for 5000 steps with 864 atoms

Performance: 799182.610 tau/day, 1849.960 timesteps/s, 1.598 Matom-step/s
99.9% CPU use with 1 MPI tasks x 1 OpenMP threads

MPI task timing breakdown:
Section |  min time  |  avg time  |  max time  |%varavg| %total
---------------------------------------------------------------
Pair    | 1.5189     | 1.5189     | 1.5189     |   0.0 | 56.20
Neigh   | 0.99919    | 0.99919    | 0.99919    |   0.0 | 36.97
Comm    | 0.082395   | 0.082395   | 0.082395   |   0.0 |  3.05
Output  | 4.2965e-05 | 4.2965e-05 | 4.2965e-05 |   0.0 |  0.00
Modify  | 0.081074   | 0.081074   | 0.081074   |   0.0 |  3.00
Other   |            | 0.02117    |            |       |  0.78

Nlocal:            864 ave         864 max         864 min
Histogram: 1 0 0 0 0 0 0 0 0 0
Nghost:           1936 ave        1936 max        1936 min
Histogram: 1 0 0 0 0 0 0 0 0 0
Neighs:          20240 ave       20240 max       20240 min
Histogram: 1 0 0 0 0 0 0 0 0 0

Total # of neighbors = 20240
Ave neighs/atom = 23.425926
Neighbor list builds = 638
Dangerous builds = 0
Generated 0 of 0 mixed pair_coeff terms from geometric mixing rule
Setting up Verlet run ...
  Unit style    : lj
  Current step  : 0
  Time step     : 0.02
Per MPI rank memory allocation (min/avg/max) = 3.133 | 3.133 | 3.133 Mbytes
   Step          Temp          PotEng         KinEng         TotEng         Press          Volume    
         0   0.97430404    -3.4429097      1.4597646     -1.9831451     -0.14369475     1728         
        10   0.9468824     -3.3971456      1.4186797     -1.9784659     -0.06460065     1728         
        20   0.94927839    -3.40039        1.4222695     -1.9781205     -0.036087262    1728         
        30   0.96284524    -3.4188529      1.4425962     -1.9762566     -0.14148869     1728         
        40   0.94148761    -3.3876794      1.4105969     -1.9770825     -0.016271003    1728         
        50   0.94069635    -3.3879617      1.4094114     -1.9785504     -0.0052571628   1728         
        60   0.97111385    -3.433796       1.4549848     -1.9788112     -0.014701983    1728         
        70   0.96850355    -3.4306153      1.4510739     -1.9795414     -0.053515592    1728         
        80   0.96299425    -3.4206759      1.4428195     -1.9778564     -0.097138369    1728         
        90   0.94061477    -3.389248       1.4092891     -1.9799589      0.088233256    1728         
       100   0.96091676    -3.4183343      1.4397069     -1.9786274     -0.029275822    1728         
       110   0.94399122    -3.3940343      1.414348      -1.9796864      0.092869566    1728         
       120   0.96717307    -3.4290377      1.4490805     -1.9799572      0.012529166    1728         
       130   0.94906695    -3.4027523      1.4219527     -1.9807996      0.022132432    1728         
       140   0.93602366    -3.3815787      1.4024105     -1.9791683      0.053822925    1728         
       150   0.93874386    -3.3833358      1.406486      -1.9768498     -0.018842488    1728         
       160   0.92815577    -3.3662454      1.3906223     -1.9756231      0.031197805    1728         
       170   0.94020036    -3.3859296      1.4086682     -1.9772614     -0.030904252    1728         
       180   0.96120767    -3.4156531      1.4401427     -1.9755103     -0.035633889    1728         
       190   0.96711782    -3.4238192      1.4489977     -1.9748215     -0.11431759     1728         
       200   0.96057908    -3.4148046      1.439201      -1.9756036     -0.047592387    1728         
       210   0.95553783    -3.4073781      1.4316478     -1.9757303      0.024161681    1728         
       220   0.94868245    -3.3985268      1.4213766     -1.9771502      0.080044652    1728         
       230   0.98055684    -3.4459356      1.4691329     -1.9768027     -0.16561401     1728         
       240   0.95833747    -3.414795       1.4358424     -1.9789526     -0.082562366    1728         
       250   0.95177463    -3.4026949      1.4260096     -1.9766854     -0.064255179    1728         
       260   0.94463757    -3.3916667      1.4153164     -1.9763504      0.030802683    1728         
       270   0.95691281    -3.4088963      1.4337079     -1.9751884     -0.025387918    1728         
       280   0.96379494    -3.4202537      1.4440192     -1.9762346     -0.016947417    1728         
       290   0.95037811    -3.3989801      1.4239172     -1.9750629      0.0022621269   1728         
       300   0.94387561    -3.3923293      1.4141747     -1.9781545     -0.026933053    1728         
       310   0.94166713    -3.3867367      1.4108659     -1.9758708     -0.047964529    1728         
       320   0.95668555    -3.4101519      1.4333674     -1.9767845     -0.10921951     1728         
       330   0.94593789    -3.3940839      1.4172646     -1.9768193     -0.023552084    1728         
       340   0.96497573    -3.4227479      1.4457883     -1.9769596     -0.10240826     1728         
       350   0.96336395    -3.4217342      1.4433734     -1.9783608     -0.1055342      1728         
       360   0.93040852    -3.370869       1.3939975     -1.9768716      0.035659654    1728         
       370   0.9387962     -3.3807209      1.4065644     -1.9741565     -0.020638087    1728         
       380   0.97118677    -3.4304262      1.4550941     -1.9753321     -0.16985335     1728         
       390   0.96826551    -3.4261846      1.4507172     -1.9754673     -0.09721402     1728         
       400   0.95244446    -3.4020912      1.4270131     -1.9750781     -0.024671855    1728         
       410   0.95443109    -3.4053563      1.4299896     -1.9753666     -0.038490955    1728         
       420   0.95469329    -3.4065606      1.4303825     -1.9761781     -0.060674168    1728         
       430   0.95547073    -3.4069291      1.4315473     -1.9753818     -0.042189924    1728         
       440   0.9518324     -3.4011174      1.4260961     -1.9750213     -0.014526579    1728         
       450   0.96517831    -3.4227101      1.4460918     -1.9766183     -0.043303313    1728         
       460   0.94889177    -3.3962806      1.4216903     -1.9745903     -0.026338359    1728         
       470   0.95801495    -3.4117789      1.4353592     -1.9764197     -0.027713243    1728         
       480   0.94245718    -3.3863279      1.4120496     -1.9742783      0.044409401    1728         
       490   0.953029      -3.4013165      1.4278889     -1.9734276     -0.05018007     1728         
       500   0.95430508    -3.4020866      1.4298008     -1.9722857      0.017804389    1728         
       510   0.95555871    -3.4031432      1.4316791     -1.9714641     -0.069040802    1728         
       520   0.95725234    -3.4059415      1.4342166     -1.9717248     -0.072725146    1728         
       530   0.96201286    -3.4114603      1.4413491     -1.9701112     -0.11319931     1728         
       540   0.94087362    -3.3782622      1.409677      -1.9685853     -0.03918164     1728         
       550   0.95711949    -3.403221       1.4340176     -1.9692034     -0.0039605151   1728         
       560   0.98596705    -3.4501101      1.4772388     -1.9728713     -0.055199329    1728         
       570   0.97350809    -3.4329101      1.458572      -1.9743381      0.088030981    1728         
       580   0.97382126    -3.4320722      1.4590412     -1.973031       0.149661       1728         
       590   0.98938789    -3.4579308      1.4823641     -1.9755666     -0.010213176    1728         
       600   0.95680706    -3.4075846      1.4335495     -1.9740351      0.09450155     1728         
       610   0.97343484    -3.4314054      1.4584623     -1.9729432     -0.10339734     1728         
       620   0.96882687    -3.4233567      1.4515583     -1.9717984     -0.14873151     1728         
       630   0.93668644    -3.3708445      1.4034035     -1.967441       0.06263526     1728         
       640   0.957516      -3.4069098      1.4346116     -1.9722981     -0.046884288    1728         
       650   0.93810404    -3.3740839      1.4055274     -1.9685565     -0.094877351    1728         
       660   0.93828537    -3.3751737      1.4057991     -1.9693746     -0.011056416    1728         
       670   0.94426211    -3.385047       1.4147538     -1.9702932     -0.070543253    1728         
       680   0.94509819    -3.3864146      1.4160065     -1.9704081      0.0071903043   1728         
       690   0.94892469    -3.3928579      1.4217396     -1.9711183     -0.017623951    1728         
       700   0.94234731    -3.3811548      1.4118849     -1.9692698     -0.12734847     1728         
       710   0.94020207    -3.3777285      1.4086708     -1.9690577     -0.16108444     1728         
       720   0.92547377    -3.3559628      1.3866039     -1.9693589     -0.072027601    1728         
       730   0.94759999    -3.3919045      1.4197548     -1.9721496      0.0057140668   1728         
       740   0.96514738    -3.4170225      1.4460455     -1.9709771     -0.033290703    1728         
       750   0.95724933    -3.4053745      1.4342121     -1.9711624      0.099535959    1728         
       760   0.95758095    -3.4049151      1.434709      -1.9702062      0.00076532163  1728         
       770   0.94890598    -3.3915426      1.4217116     -1.969831      -0.071542049    1728         
       780   0.94416023    -3.3850848      1.4146012     -1.9704836     -0.045211473    1728         
       790   0.92058533    -3.3476613      1.3792798     -1.9683815      0.041933008    1728         
       800   0.96691963    -3.4204917      1.4487008     -1.971791      -0.13762159     1728         
       810   0.96536805    -3.4164064      1.4463761     -1.9700304     -0.12206099     1728         
       820   0.96028725    -3.4087753      1.4387637     -1.9700116     -0.14315813     1728         
       830   0.94222243    -3.3826315      1.4116978     -1.9709336     -0.047629676    1728         
       840   0.95175175    -3.3944881      1.4259753     -1.9685128     -0.12563213     1728         
       850   0.93644671    -3.3727676      1.4030443     -1.9697233     -0.010187927    1728         
       860   0.93810293    -3.3757063      1.4055257     -1.9701806      0.11184539     1728         
       870   0.94247155    -3.3826883      1.4120711     -1.9706172      0.16105452     1728         
       880   0.95147957    -3.3977209      1.4255675     -1.9721534      0.0088410975   1728         
       890   0.9567579     -3.4041967      1.4334758     -1.9707209     -0.062836448    1728         
       900   0.96867015    -3.4219335      1.4513235     -1.97061       -0.041009548    1728         
       910   0.97146327    -3.4274056      1.4555083     -1.9718973      0.10499659     1728         
       920   0.98900509    -3.4559345      1.4817906     -1.9741439     -0.080756499    1728         
       930   0.94532311    -3.3884312      1.4163435     -1.9720878      0.087680169    1728         
       940   0.95676637    -3.4033253      1.4334885     -1.9698368     -0.074427029    1728         
       950   0.94759781    -3.3903783      1.4197516     -1.9706267     -0.07190053     1728         
       960   0.94530166    -3.3842366      1.4163113     -1.9679252     -0.080998781    1728         
       970   0.94573142    -3.3867383      1.4169552     -1.9697831     -0.041224245    1728         
       980   0.94568485    -3.3869894      1.4168855     -1.9701039     -0.033238139    1728         
       990   0.96214686    -3.4110739      1.4415499     -1.969524      -0.18229121     1728         
      1000   0.92923101    -3.3610224      1.3922333     -1.9687891     -0.026792211    1728         
      1010   0.92538574    -3.3530251      1.386472      -1.966553       0.021396351    1728         
      1020   0.93677755    -3.3715719      1.40354       -1.9680319     -0.094841166    1728         
      1030   0.9354892     -3.3681952      1.4016097     -1.9665855     -0.17226201     1728         
      1040   0.94405565    -3.3841773      1.4144445     -1.9697329     -0.16035452     1728         
      1050   0.90913808    -3.3288836      1.3621288     -1.9667548      0.025233713    1728         
      1060   0.93217949    -3.3657434      1.3966509     -1.9690925     -0.013659831    1728         
      1070   0.94123662    -3.3804383      1.4102208     -1.9702175     -0.098953747    1728         
      1080   0.95553936    -3.3992481      1.4316501     -1.967598      -0.044428198    1728         
      1090   0.96566039    -3.4165791      1.4468141     -1.969765       0.01744677     1728         
      1100   0.9627735     -3.4104324      1.4424888     -1.9679437      2.6425859e-05  1728         
      1110   0.98416598    -3.4461379      1.4745403     -1.9715976     -0.019091268    1728         
      1120   0.97551012    -3.433078       1.4615716     -1.9715064      0.092566725    1728         
      1130   0.97055932    -3.4256268      1.454154      -1.9714729      0.042539094    1728         
      1140   0.96156667    -3.4105783      1.4406806     -1.9698977      0.0070395579   1728         
      1150   0.97515018    -3.4316147      1.4610323     -1.9705824     -0.065515566    1728         
      1160   0.9604059     -3.4119819      1.4389415     -1.9730404      0.021607934    1728         
      1170   0.97532681    -3.4334481      1.4612969     -1.9721512      0.0041740583   1728         
      1180   0.99486488    -3.4625467      1.4905701     -1.9719765     -0.073189968    1728         
      1190   0.94856877    -3.3942301      1.4212063     -1.9730237      0.086841098    1728         
      1200   0.96212577    -3.4154267      1.4415183     -1.9739084      0.0026718215   1728         
      1210   0.96612642    -3.4166308      1.4475123     -1.9691185      0.05325851     1728         
      1220   0.97089596    -3.4266522      1.4546584     -1.9719938      0.068072622    1728         
      1230   0.97405405    -3.4312919      1.45939       -1.9719019      0.016498761    1728         
      1240   0.9801101     -3.4404623      1.4684636     -1.9719987      0.051369174    1728         
      1250   0.98734175    -3.4503123      1.4792985     -1.9710138     -0.046581313    1728         
      1260   0.96459518    -3.4150104      1.4452181     -1.9697923      0.025576569    1728         
      1270   0.97597246    -3.4300635      1.4622643     -1.9677992     -0.087252487    1728         
      1280   0.95108705    -3.3940978      1.4249794     -1.9691184      0.05678128     1728         
      1290   0.96109088    -3.4100981      1.4399678     -1.9701304      0.060360847    1728         
      1300   0.98520543    -3.446058       1.4760977     -1.9699603      0.0050317828   1728         
      1310   0.98168907    -3.43647        1.4708293     -1.9656407     -0.04663077     1728         
      1320   0.98828964    -3.4494202      1.4807187     -1.9687015     -0.12171465     1728         
      1330   0.96742777    -3.4191406      1.4494621     -1.9696785     -0.046973182    1728         
      1340   0.94221442    -3.3772139      1.4116858     -1.9655281      0.048536648    1728         
      1350   0.95335403    -3.392302       1.4283759     -1.9639261     -0.05225695     1728         
      1360   0.93619972    -3.3665291      1.4026742     -1.9638548      0.0043938703   1728         
      1370   0.9563764     -3.3977306      1.4329042     -1.9648264     -0.18353976     1728         
      1380   0.95330172    -3.3918136      1.4282975     -1.963516      -0.073379334    1728         
      1390   0.97985681    -3.4309383      1.4680841     -1.9628543     -0.076269967    1728         
      1400   0.97150118    -3.4188539      1.4555651     -1.9632888     -0.071978305    1728         
      1410   0.95089309    -3.3880962      1.4246888     -1.9634074     -0.080542186    1728         
      1420   0.95151878    -3.390585       1.4256262     -1.9649587     -0.024354698    1728         
      1430   0.94515956    -3.382795       1.4160984     -1.9666966     -0.029755135    1728         
      1440   0.93908969    -3.3737261      1.4070042     -1.9667219      0.03593304     1728         
      1450   0.94401997    -3.3818062      1.414391      -1.9674152      0.056872911    1728         
      1460   0.96026998    -3.4058595      1.4387378     -1.9671217     -0.014892384    1728         
      1470   0.99759176    -3.4618274      1.4946557     -1.9671717     -0.083410319    1728         
      1480   0.96746532    -3.4159954      1.4495184     -1.9664771     -0.010561081    1728         
      1490   0.96605136    -3.4125185      1.4473999     -1.9651186      0.059173509    1728         
      1500   0.94746617    -3.3839068      1.4195543     -1.9643525      0.059919337    1728         
      1510   0.95705406    -3.400278       1.4339195     -1.9663585     -0.023013754    1728         
      1520   0.95708014    -3.4012793      1.4339586     -1.9673207     -0.028073144    1728         
      1530   0.98617538    -3.4448229      1.477551      -1.967272      -0.14825799     1728         
      1540   0.95603623    -3.3985552      1.4323946     -1.9661606     -0.011045985    1728         
      1550   0.95281946    -3.3929442      1.427575      -1.9653692      0.0060736162   1728         
      1560   0.91546198    -3.3351783      1.3716036     -1.9635747      0.049421309    1728         
      1570   0.93152011    -3.3609774      1.3956629     -1.9653144     -0.060455606    1728         
      1580   0.92076577    -3.3445808      1.3795501     -1.9650307     -0.0098137765   1728         
      1590   0.94044832    -3.3730705      1.4090398     -1.9640307     -0.057162257    1728         
      1600   0.95786092    -3.3991376      1.4351284     -1.9640092     -0.051460455    1728         
      1610   0.94813323    -3.3876894      1.4205538     -1.9671356     -0.097997736    1728         
      1620   0.94566063    -3.3838705      1.4168492     -1.9670214     -0.072088607    1728         
      1630   0.96131497    -3.4064199      1.4403035     -1.9661164     -0.14097448     1728         
      1640   0.94638779    -3.3818394      1.4179386     -1.9639007     -0.012367055    1728         
      1650   0.92968764    -3.3599101      1.3929174     -1.9669927      0.059159336    1728         
      1660   0.97067781    -3.4228462      1.4543315     -1.9685147     -0.080783297    1728         
      1670   0.96481833    -3.4122246      1.4455525     -1.9666722      0.066141032    1728         
      1680   0.98260767    -3.439726       1.4722056     -1.9675204     -0.018701951    1728         
      1690   0.9563065     -3.4004423      1.4327995     -1.9676428     -0.024765125    1728         
      1700   0.95535134    -3.3994602      1.4313684     -1.9680918     -0.031237848    1728         
      1710   0.92983488    -3.3575489      1.393138      -1.9644109      0.12898201     1728         
      1720   0.97150844    -3.4206487      1.455576      -1.9650727     -0.12938936     1728         
      1730   0.94894528    -3.3873029      1.4217704     -1.9655324     -0.063338498    1728         
      1740   0.93252556    -3.3625035      1.3971694     -1.9653342     -0.028712935    1728         
      1750   0.94429031    -3.380186       1.4147961     -1.9653899     -0.019972073    1728         
      1760   0.93574201    -3.3672563      1.4019885     -1.9652679      0.047265387    1728         
      1770   0.94219765    -3.3801925      1.4116607     -1.9685318      0.034444691    1728         
      1780   0.94541288    -3.3830745      1.416478      -1.9665965      0.14350989     1728         
      1790   0.98548165    -3.4453385      1.4765116     -1.9688269     -0.064477039    1728         
      1800   0.96533283    -3.41542        1.4463233     -1.9690967     -0.051665092    1728         
      1810   0.96350174    -3.4117833      1.4435799     -1.9682035     -0.082250438    1728         
      1820   0.9765991     -3.4331424      1.4632032     -1.9699392     -0.028615667    1728         
      1830   0.95344068    -3.3963593      1.4285057     -1.9678536     -0.031818038    1728         
      1840   0.93598575    -3.3694798      1.4023537     -1.9671261      0.10302673     1728         
      1850   0.95664844    -3.4016255      1.4333118     -1.9683137     -0.071102511    1728         
      1860   0.94618749    -3.3843616      1.4176385     -1.9667231     -0.030566523    1728         
      1870   0.96564312    -3.4137771      1.4467882     -1.9669889     -0.038614596    1728         
      1880   0.95958036    -3.4075549      1.4377046     -1.9698503      0.040086058    1728         
      1890   0.97887041    -3.4348744      1.4666062     -1.9682682     -0.015096615    1728         
      1900   0.97924636    -3.4336147      1.4671695     -1.9664453     -0.084228913    1728         
      1910   0.95040225    -3.3930894      1.4239534     -1.969136       0.02805636     1728         
      1920   1.0007048     -3.4684201      1.4993199     -1.9691002     -0.24948191     1728         
      1930   0.97635683    -3.4296372      1.4628402     -1.966797      -0.031044012    1728         
      1940   0.95498011    -3.3999598      1.4308122     -1.9691476      0.069256973    1728         
      1950   0.95641502    -3.4038448      1.4329621     -1.9708827     -6.1512341e-05  1728         
      1960   0.96374352    -3.411271       1.4439421     -1.9673289     -0.11457589     1728         
      1970   0.94885697    -3.3899329      1.4216381     -1.9682947     -0.067520804    1728         
      1980   0.93447941    -3.3660628      1.4000968     -1.9659661      0.014956078    1728         
      1990   0.95033638    -3.3914125      1.4238547     -1.9675578     -0.073980843    1728         
      2000   0.94167097    -3.3787084      1.4108716     -1.9678368      0.00038437985  1728         
      2010   0.95223607    -3.39193        1.4267009     -1.9652291     -0.16200699     1728         
      2020   0.93737627    -3.3684404      1.404437      -1.9640034     -0.042261643    1728         
      2030   0.93132532    -3.3591829      1.3953711     -1.9638118     -0.059120052    1728         
      2040   0.90553193    -3.319322       1.3567258     -1.9625962      0.014855883    1728         
      2050   0.9308945     -3.359056       1.3947256     -1.9643304     -0.030310175    1728         
      2060   0.94962082    -3.3876935      1.4227826     -1.9649109     -0.065083099    1728         
      2070   0.95202248    -3.3925459      1.4263809     -1.966165      -0.10609985     1728         
      2080   0.923131      -3.3478497      1.3830938     -1.9647559     -0.0087943245   1728         
      2090   0.94104115    -3.3774065      1.409928      -1.9674785     -0.01925214     1728         
      2100   0.95657019    -3.3997196      1.4331946     -1.9665251     -0.028792112    1728         
      2110   0.93363904    -3.3647121      1.3988377     -1.9658745      0.024264612    1728         
      2120   0.95984251    -3.4014095      1.4380974     -1.9633121     -0.094304448    1728         
      2130   0.95787308    -3.4013652      1.4351466     -1.9662186     -0.15628728     1728         
      2140   0.95466347    -3.3964833      1.4303378     -1.9661454     -0.072003943    1728         
      2150   0.96709817    -3.4151249      1.4489683     -1.9661566      0.018894339    1728         
      2160   0.96702103    -3.4165851      1.4488527     -1.9677324     -0.033551378    1728         
      2170   0.9616716     -3.4099219      1.4408378     -1.9690841      0.099849658    1728         
      2180   0.97343988    -3.4246451      1.4584698     -1.9661753     -0.010728997    1728         
      2190   0.96056618    -3.4046015      1.4391816     -1.9654199      0.054701649    1728         
      2200   0.9697435     -3.4187135      1.4529317     -1.9657819     -0.0068518292   1728         
      2210   0.97897027    -3.4325425      1.4667558     -1.9657867     -0.12040468     1728         
      2220   0.96707366    -3.4148711      1.4489315     -1.9659396     -0.089021466    1728         
      2230   0.9531922     -3.3952847      1.4281335     -1.9671512      0.025156913    1728         
      2240   0.95114061    -3.3902206      1.4250596     -1.965161      -0.035753095    1728         
      2250   0.95948131    -3.4028029      1.4375562     -1.9652467     -0.068752362    1728         
      2260   0.94287167    -3.378455       1.4126706     -1.9657844      0.0087336757   1728         
      2270   0.93870994    -3.3694633      1.4064352     -1.9630281      0.035095192    1728         
      2280   0.95162013    -3.3900422      1.4257781     -1.9642642     -0.13041111     1728         
      2290   0.94151213    -3.3749352      1.4106336     -1.9643016     -0.10137092     1728         
      2300   0.94622711    -3.3830564      1.4176979     -1.9653584     -0.025760215    1728         
      2310   0.93200202    -3.3607983      1.396385      -1.9644133     -0.03486512     1728         
      2320   0.92756804    -3.3514879      1.3897417     -1.9617462     -0.0081253184   1728         
      2330   0.94598687    -3.3798425      1.417338      -1.9625045     -0.17452438     1728         
      2340   0.94940588    -3.385883       1.4224605     -1.9634224     -0.10187417     1728         
      2350   0.95995675    -3.4012021      1.4382685     -1.9629336     -0.14351576     1728         
      2360   0.95050959    -3.3887092      1.4241142     -1.964595      -0.012527645    1728         
      2370   0.95248471    -3.3904718      1.4270734     -1.9633984     -0.062702031    1728         
      2380   0.93659975    -3.3657334      1.4032736     -1.9624598     -0.030448488    1728         
      2390   0.95064841    -3.3867361      1.4243222     -1.9624139      0.027431192    1728         
      2400   0.93770048    -3.3684875      1.4049228     -1.9635648      0.16779199     1728         
      2410   0.9820654     -3.4380715      1.4713931     -1.9666783     -0.036805815    1728         
      2420   0.97478176    -3.4270239      1.4604803     -1.9665436     -0.026688319    1728         
      2430   0.98071367    -3.4375892      1.4693679     -1.9682213      0.0079099486   1728         
      2440   0.99963587    -3.4624921      1.4977183     -1.9647738     -0.070576927    1728         
      2450   0.96224439    -3.4055851      1.441696      -1.9638891      0.098951776    1728         
      2460   0.95436282    -3.3923906      1.4298874     -1.9625032      0.01661518     1728         
      2470   0.94264142    -3.3752184      1.4123256     -1.9628928     -0.078586815    1728         
      2480   0.96868746    -3.4126251      1.4513494     -1.9612757     -0.17054296     1728         
      2490   0.94994773    -3.3850466      1.4232724     -1.9617742     -0.10793105     1728         
      2500   0.93553483    -3.3620348      1.4016781     -1.9603567     -0.096367674    1728         
      2510   0.94432139    -3.3738332      1.4148426     -1.9589905      0.011424166    1728         
      2520   0.94912243    -3.3816902      1.4220359     -1.9596544     -0.043986899    1728         
      2530   0.93446764    -3.3602478      1.4000791     -1.9601687     -0.0048229903   1728         
      2540   0.95538488    -3.3922805      1.4314187     -1.9608618     -0.12618385     1728         
      2550   0.9275854     -3.3500503      1.3897677     -1.9602826      0.019188767    1728         
      2560   0.95595813    -3.3900184      1.4322775     -1.9577408     -0.11815877     1728         
      2570   0.92770439    -3.3488809      1.389946      -1.9589349      0.0080938136   1728         
      2580   0.93348287    -3.3562168      1.3986037     -1.9576131     -0.070965124    1728         
      2590   0.96209689    -3.4010361      1.441475      -1.959561      -0.11552741     1728         
      2600   0.91924886    -3.3322659      1.3772774     -1.9549885      0.102021       1728         
      2610   0.94472977    -3.3715258      1.4154545     -1.9560713     -0.095906516    1728         
      2620   0.92407926    -3.3388235      1.3845146     -1.9543089     -0.095961627    1728         
      2630   0.92662511    -3.3424341      1.3883289     -1.9541051     -0.099661592    1728         
      2640   0.9196581     -3.333721       1.3778905     -1.9558305     -0.099978632    1728         
      2650   0.92448077    -3.3396326      1.3851162     -1.9545164     -0.15656704     1728         
      2660   0.92793161    -3.3436805      1.3902864     -1.953394      -0.20413152     1728         
      2670   0.93102051    -3.3484632      1.3949144     -1.9535487     -0.14082577     1728         
      2680   0.93832441    -3.3606483      1.4058576     -1.9547907     -0.10095417     1728         
      2690   0.9437287     -3.369973       1.4139546     -1.9560183     -0.064741223    1728         
      2700   0.94100658    -3.3641361      1.4098762     -1.9542599     -0.014485336    1728         
      2710   0.95712623    -3.3919694      1.4340277     -1.9579417     -0.11100991     1728         
      2720   0.94615709    -3.3761856      1.417593      -1.9585926     -0.06010618     1728         
      2730   0.95698053    -3.3923874      1.4338094     -1.9585781     -0.050068578    1728         
      2740   0.95216589    -3.3844181      1.4265958     -1.9578223     -0.024561752    1728         
      2750   0.96178274    -3.3982404      1.4410043     -1.957236      -0.037885203    1728         
      2760   0.94961662    -3.3810203      1.4227763     -1.9582441      0.057601344    1728         
      2770   0.95502703    -3.3866945      1.4308825     -1.955812       0.05408451     1728         
      2780   0.93861115    -3.3623147      1.4062872     -1.9560275      0.10837122     1728         
      2790   0.95193528    -3.3849301      1.4262503     -1.9586799      0.10469326     1728         
      2800   0.97130511    -3.4137548      1.4552714     -1.9584834     -0.06740776     1728         
      2810   0.96110926    -3.3963127      1.4399953     -1.9563174     -0.026510671    1728         
      2820   0.96322553    -3.4000548      1.443166      -1.9568888      0.030204036    1728         
      2830   0.94423689    -3.3667466      1.414716      -1.9520306      0.061981679    1728         
      2840   0.95422712    -3.3851693      1.429684      -1.9554853      0.0044159189   1728         
      2850   0.97179163    -3.410904       1.4560003     -1.9549037     -0.065381704    1728         
      2860   0.98089779    -3.4244351      1.4696437     -1.9547913      0.0024355233   1728         
      2870   0.97203448    -3.4116732      1.4563642     -1.955309      -0.067998452    1728         
      2880   0.96821724    -3.4059338      1.4506449     -1.9552888     -0.04365135     1728         
      2890   0.95996934    -3.3940444      1.4382874     -1.955757      -0.025146134    1728         
      2900   0.97398177    -3.4146306      1.4592817     -1.9553489     -0.12848964     1728         
      2910   0.9319934     -3.3493337      1.3963721     -1.9529616      0.14026        1728         
      2920   0.95999254    -3.3934655      1.4383222     -1.9551434      0.090975012    1728         
      2930   0.98223076    -3.4277735      1.4716409     -1.9561327     -0.037370266    1728         
      2940   0.9700885     -3.4087025      1.4534486     -1.955254       0.0019639805   1728         
      2950   0.95873506    -3.3916433      1.4364381     -1.9552052      0.062647821    1728         
      2960   0.94952946    -3.3767361      1.4226457     -1.9540904      0.010828876    1728         
      2970   0.9656699     -3.4002553      1.4468283     -1.953427      -0.1067436      1728         
      2980   0.97282013    -3.4086668      1.4575413     -1.9511256      0.023083392    1728         
      2990   0.96254329    -3.3948591      1.4421439     -1.9527153      0.043958183    1728         
      3000   0.95252775    -3.3762617      1.4271379     -1.9491237     -0.019694696    1728         
      3010   0.95706532    -3.3841722      1.4339364     -1.9502358     -0.033915041    1728         
      3020   0.93906553    -3.356046       1.406968      -1.949078       0.015734152    1728         
      3030   0.94652385    -3.3677794      1.4181425     -1.9496369     -0.00099444339  1728         
      3040   0.944624      -3.3636362      1.415296      -1.9483401     -0.083578906    1728         
      3050   0.91956596    -3.3252324      1.3777525     -1.94748       -0.053678338    1728         
      3060   0.94114466    -3.35957        1.4100831     -1.949487      -0.12002198     1728         
      3070   0.97340063    -3.4065736      1.458411      -1.9481626     -0.10779086     1728         
      3080   0.95862721    -3.3818053      1.4362765     -1.9455287     -0.091434575    1728         
      3090   0.95473208    -3.3774681      1.4304406     -1.9470275     -0.11252908     1728         
      3100   0.9482973     -3.36865        1.4207996     -1.9478504      0.012935707    1728         
      3110   0.97503828    -3.4084444      1.4608646     -1.9475798     -0.10750967     1728         
      3120   0.93983616    -3.3556924      1.4081226     -1.9475698      0.066445879    1728         
      3130   0.93751328    -3.3536298      1.4046423     -1.9489875      0.0550144      1728         
      3140   0.95999574    -3.3880037      1.438327      -1.9496767      0.11988673     1728         
      3150   0.99073911    -3.4371691      1.4843886     -1.9527805      0.062677894    1728         
      3160   0.96792029    -3.3991788      1.4502        -1.9489788      0.12846242     1728         
      3170   0.97142318    -3.4067081      1.4554483     -1.9512598      0.017669224    1728         
      3180   0.97925563    -3.4174274      1.4671833     -1.950244      -0.0037229724   1728         
      3190   0.9834207     -3.4233998      1.4734237     -1.9499761     -0.074472254    1728         
      3200   0.97035672    -3.4047931      1.4538504     -1.9509427      0.030928912    1728         
      3210   0.99262897    -3.4417864      1.4872201     -1.9545662      0.10115246     1728         
      3220   0.99848072    -3.4493923      1.4959876     -1.9534047     -0.015584663    1728         
      3230   0.96778768    -3.403841       1.4500013     -1.9538397      0.10452646     1728         
      3240   0.96739396    -3.402904       1.4494114     -1.9534926      0.14206293     1728         
      3250   0.98283347    -3.4212134      1.4725439     -1.9486695      0.05254122     1728         
      3260   0.99198663    -3.4394864      1.4862578     -1.9532287     -0.018099798    1728         
      3270   0.98884434    -3.4328105      1.4815498     -1.9512608     -0.083190974    1728         
      3280   0.96253549    -3.3922546      1.4421322     -1.9501225      0.028416329    1728         
      3290   0.96471189    -3.3938599      1.445393      -1.9484669     -0.039331049    1728         
      3300   0.97096164    -3.4010103      1.4547568     -1.9462535     -0.07981439     1728         
      3310   0.98467843    -3.4220518      1.4753081     -1.9467437     -0.056460526    1728         
      3320   0.95330561    -3.377375       1.4283034     -1.9490716      0.098998726    1728         
      3330   0.98504671    -3.4243622      1.4758599     -1.9485023     -0.10714503     1728         
      3340   0.96311336    -3.395491       1.442998      -1.952493       0.020208999    1728         
      3350   0.97691778    -3.4170415      1.4636806     -1.9533609     -0.014557133    1728         
      3360   0.96962678    -3.4029402      1.4527568     -1.9501834      0.072987581    1728         
      3370   0.9769794     -3.4137904      1.463773      -1.9500174     -0.006697401    1728         
      3380   0.9733273     -3.4103256      1.4583011     -1.9520244      0.014173451    1728         
      3390   0.98111786    -3.4216395      1.4699735     -1.951666       0.064234468    1728         
      3400   0.960495      -3.3898264      1.439075      -1.9507514      0.032180833    1728         
      3410   0.97298756    -3.4092946      1.4577921     -1.9515024      0.021087407    1728         
      3420   0.99110217    -3.437578       1.4849326     -1.9526454     -0.022100143    1728         
      3430   0.97805754    -3.4162905      1.4653883     -1.9509022     -0.11463951     1728         
      3440   0.96887779    -3.4028507      1.4516346     -1.9512161     -0.082799709    1728         
      3450   0.96025339    -3.3901028      1.438713      -1.9513898      0.010874805    1728         
      3460   0.96154132    -3.3918025      1.4406426     -1.9511599     -0.057586698    1728         
      3470   0.96822019    -3.4020153      1.4506494     -1.951366      -0.03583456     1728         
      3480   0.95995334    -3.387391       1.4382634     -1.9491276     -0.039578993    1728         
      3490   0.98048502    -3.4177393      1.4690253     -1.948714      -0.10876656     1728         
      3500   0.9896322     -3.4339655      1.4827302     -1.9512353     -0.1511229      1728         
      3510   0.94355518    -3.363729       1.4136946     -1.9500343      0.075146658    1728         
      3520   0.95734355    -3.3828996      1.4343533     -1.9485463      0.016763552    1728         
      3530   0.94549334    -3.3658077      1.4165985     -1.9492092      0.015451063    1728         
      3540   0.95498824    -3.3789482      1.4308244     -1.9481238      0.036480188    1728         
      3550   0.94454255    -3.3659497      1.415174      -1.9507757      0.024033647    1728         
      3560   0.95520009    -3.3817206      1.4311418     -1.9505788     -0.036302118    1728         
      3570   0.95836893    -3.3870945      1.4358896     -1.9512049     -0.034965663    1728         
      3580   0.9507687     -3.3719374      1.4245024     -1.947435       0.0026729042   1728         
      3590   0.96991041    -3.39986        1.4531817     -1.9466783     -0.080886352    1728         
      3600   0.96974069    -3.4037833      1.4529275     -1.9508559     -0.14751088     1728         
      3610   0.94844971    -3.370309       1.421028      -1.9492811     -0.055307854    1728         
      3620   0.94376745    -3.363636       1.4140127     -1.9496233      0.086755204    1728         
      3630   0.96205853    -3.393431       1.4414176     -1.9520134      0.06479592     1728         
      3640   0.98544022    -3.427204       1.4764495     -1.9507545     -0.098740184    1728         
      3650   0.95853788    -3.3876878      1.4361427     -1.9515451     -0.004581002    1728         
      3660   0.97777484    -3.418383       1.4649647     -1.9534183      0.015675089    1728         
      3670   0.95135988    -3.3787642      1.4253882     -1.9533761      0.092397188    1728         
      3680   0.97811547    -3.4181758      1.4654751     -1.9527007     -0.061815277    1728         
      3690   0.95134357    -3.3765434      1.4253637     -1.9511796      0.044940704    1728         
      3700   0.96210842    -3.3935339      1.4414923     -1.9520416      0.069055915    1728         
      3710   0.97287643    -3.4078408      1.4576256     -1.9502152     -0.06372244     1728         
      3720   0.97869707    -3.4166055      1.4663465     -1.950259      -0.010856645    1728         
      3730   0.96872548    -3.3998897      1.4514064     -1.9484832      0.064648264    1728         
      3740   0.97819198    -3.4161823      1.4655897     -1.9505925      0.077266746    1728         
      3750   1.0011646     -3.4530703      1.5000088     -1.9530615      0.040687447    1728         
      3760   1.0208393     -3.4850383      1.5294867     -1.9555516      0.016254972    1728         
      3770   1.0008662     -3.4552565      1.4995617     -1.9556948      0.14472851     1728         
      3780   1.0246929     -3.4895061      1.5352603     -1.9542458      0.013264147    1728         
      3790   0.99544441    -3.446278       1.4914384     -1.9548396      0.12640982     1728         
      3800   0.98609943    -3.4301211      1.4774372     -1.952684       0.18006515     1728         
      3810   1.005031      -3.459035       1.5058017     -1.9532333      0.05438512     1728         
      3820   0.9854539     -3.4298741      1.47647       -1.9534041      0.030149901    1728         
      3830   0.99217874    -3.4428927      1.4865456     -1.9563471      0.084577651    1728         
      3840   0.99354095    -3.4399754      1.4885865     -1.9513889     -0.0027439372   1728         
      3850   0.98771528    -3.4310535      1.4798581     -1.9511954      0.047299413    1728         
      3860   0.96522901    -3.3977013      1.4461678     -1.9515336      0.027655399    1728         
      3870   1.0001939     -3.4482437      1.4985544     -1.9496893     -0.090751973    1728         
      3880   0.98753915    -3.4300389      1.4795943     -1.9504447      0.0032088911   1728         
      3890   1.0078986     -3.4610506      1.5100981     -1.9509525     -0.016010699    1728         
      3900   0.99984545    -3.4498172      1.4980323     -1.9517848      0.028254329    1728         
      3910   0.9930697     -3.4407372      1.4878805     -1.9528567     -0.011931558    1728         
      3920   0.9559756     -3.3826947      1.4323037     -1.9503909      0.11610534     1728         
      3930   0.96948211    -3.4046597      1.45254       -1.9521197      0.033737518    1728         
      3940   0.98593734    -3.4286571      1.4771943     -1.9514628     -0.032241031    1728         
      3950   0.98227152    -3.4209094      1.4717019     -1.9492075     -0.044785375    1728         
      3960   0.97859939    -3.415707       1.4662001     -1.9495069     -0.046008135    1728         
      3970   0.96267897    -3.3912705      1.4423471     -1.9489233     -0.036066968    1728         
      3980   0.94523256    -3.366391       1.4162078     -1.9501832      0.047784931    1728         
      3990   0.95866037    -3.3897124      1.4363262     -1.9533862      0.081308134    1728         
      4000   0.95471755    -3.3819696      1.4304188     -1.9515508      0.030214938    1728         
      4010   0.96743767    -3.4034631      1.4494769     -1.9539861     -0.016222682    1728         
      4020   0.98525799    -3.4289883      1.4761765     -1.9528118     -0.047478292    1728         
      4030   0.98413875    -3.4285528      1.4744996     -1.9540533      0.03557877     1728         
      4040   0.9539254     -3.3826471      1.429232      -1.9534151      0.11218602     1728         
      4050   0.97404834    -3.4126349      1.4593815     -1.9532534     -0.097655877    1728         
      4060   0.970259      -3.4086388      1.453704      -1.9549347     -0.089684573    1728         
      4070   0.97326583    -3.412485       1.458209      -1.9542759      0.013252224    1728         
      4080   1.001268      -3.4560982      1.5001636     -1.9559346     -0.076314476    1728         
      4090   0.96760818    -3.4039168      1.4497324     -1.9541844      0.096840743    1728         
      4100   0.98116252    -3.424505       1.4700404     -1.9544646      0.014922787    1728         
      4110   0.96606707    -3.4005097      1.4474234     -1.9530863      0.021984677    1728         
      4120   0.93563807    -3.3515445      1.4018327     -1.9497117     -0.034082186    1728         
      4130   0.94683661    -3.3663363      1.4186111     -1.9477252     -0.13769314     1728         
      4140   0.95855391    -3.3866896      1.4361667     -1.9505229     -0.0077867602   1728         
      4150   0.96175103    -3.389183       1.4409568     -1.9482262     -0.029005297    1728         
      4160   0.94264801    -3.3607524      1.4123355     -1.9484169     -0.037776416    1728         
      4170   0.94929978    -3.3704731      1.4223016     -1.9481715     -0.057622958    1728         
      4180   0.94805307    -3.3697471      1.4204337     -1.9493134     -0.009539702    1728         
      4190   0.95308681    -3.3779064      1.4279756     -1.9499308     -0.017312107    1728         
      4200   0.95908353    -3.3896475      1.4369602     -1.9526873     -0.036996465    1728         
      4210   0.97120758    -3.4088646      1.4551252     -1.9537393      0.029442289    1728         
      4220   0.98224824    -3.4223148      1.4716671     -1.9506477     -0.088575244    1728         
      4230   0.96174935    -3.3917554      1.4409543     -1.9508011     -0.042491517    1728         
      4240   0.96952598    -3.4056524      1.4526058     -1.9530466      0.031776778    1728         
      4250   0.96407509    -3.3975254      1.4444389     -1.9530865     -0.030832594    1728         
      4260   0.95804699    -3.3879159      1.4354072     -1.9525087     -0.001594348    1728         
      4270   0.97110659    -3.4077064      1.4549739     -1.9527324     -0.03394138     1728         
      4280   0.98143174    -3.4216348      1.4704437     -1.9511911     -0.0066278072   1728         
      4290   0.95576225    -3.3852422      1.4319841     -1.9532582      0.052519742    1728         
      4300   0.94813296    -3.373778       1.4205534     -1.9532247      0.038624111    1728         
      4310   0.98220516    -3.4252159      1.4716025     -1.9536134     -0.0067288731   1728         
      4320   0.95820995    -3.3881398      1.4356514     -1.9524885      0.15536387     1728         
      4330   1.0038864     -3.4563181      1.5040868     -1.9522313     -0.11966637     1728         
      4340   0.94183108    -3.36114        1.4111115     -1.9500285      0.089759873    1728         
      4350   0.97086224    -3.4074698      1.4546078     -1.952862      -0.069654443    1728         
      4360   0.97648018    -3.4167074      1.463025      -1.9536824     -0.082654633    1728         
      4370   0.95211238    -3.3771163      1.4265156     -1.9506007      0.046698749    1728         
      4380   0.95858796    -3.3882413      1.4362177     -1.9520236      0.018283435    1728         
      4390   0.95993076    -3.388784       1.4382296     -1.9505544      0.013376564    1728         
      4400   0.9740563     -3.409772       1.4593934     -1.9503786     -0.054830774    1728         
      4410   0.9689038     -3.4011343      1.4516736     -1.9494607     -0.066668506    1728         
      4420   0.9610468     -3.3878357      1.4399017     -1.9479339     -0.060309001    1728         
      4430   0.95546887    -3.3771161      1.4315445     -1.9455716      0.007527209    1728         
      4440   0.95275827    -3.3699036      1.4274833     -1.9424203     -0.068014941    1728         
      4450   0.93264091    -3.3394458      1.3973422     -1.9421036     -0.025825714    1728         
      4460   0.93752869    -3.347401       1.4046654     -1.9427356     -0.025861443    1728         
      4470   0.93589572    -3.3439616      1.4022188     -1.9417428     -0.063233294    1728         
      4480   0.93266148    -3.338217       1.397373      -1.940844      -0.016682506    1728         
      4490   0.93749272    -3.3461498      1.4046115     -1.9415383     -0.048077046    1728         
      4500   0.91829754    -3.3175376      1.375852      -1.9416856     -0.04170824     1728         
      4510   0.93156983    -3.3379936      1.3957374     -1.9422562     -0.054928731    1728         
      4520   0.92937799    -3.3338149      1.3924535     -1.9413614     -0.0084567818   1728         
      4530   0.95618007    -3.377376       1.4326101     -1.9447659     -0.11895083     1728         
      4540   0.94082594    -3.3523128      1.4096055     -1.9427072     -0.029564229    1728         
      4550   0.94765156    -3.3639243      1.4198321     -1.9440922     -0.012882149    1728         
      4560   0.96072232    -3.3821372      1.4394156     -1.9427216     -0.1714592      1728         
      4570   0.9449225     -3.3598836      1.4157433     -1.9441403     -0.083039925    1728         
      4580   0.93549676    -3.3441971      1.401621      -1.9425761     -0.0081433377   1728         
      4590   0.94214357    -3.3558046      1.4115797     -1.9442249     -0.011251834    1728         
      4600   0.96913822    -3.3962215      1.4520248     -1.9441967     -0.094347041    1728         
      4610   0.95983029    -3.3853976      1.4380791     -1.9473185     -0.055011943    1728         
      4620   0.97996198    -3.4149526      1.4682416     -1.946711      -0.10100388     1728         
      4630   0.96139024    -3.3878219      1.4404163     -1.9474056     -0.049000631    1728         
      4640   0.93144434    -3.3398319      1.3955494     -1.9442825      0.11043928     1728         
      4650   0.9757407     -3.4077731      1.4619171     -1.9458561     -0.092136857    1728         
      4660   0.9811029     -3.4169776      1.469951      -1.9470265     -0.086927906    1728         
      4670   0.92044946    -3.3245893      1.3790762     -1.9455132      0.15809303     1728         
      4680   0.96456429    -3.3903962      1.4451718     -1.9452243     -0.082877439    1728         
      4690   0.97367229    -3.4031892      1.458818      -1.9443712     -0.14625458     1728         
      4700   0.92982643    -3.338589       1.3931254     -1.9454636      0.016123413    1728         
      4710   0.95730591    -3.3808272      1.4342969     -1.9465304     -0.16233409     1728         
      4720   0.93351043    -3.3438921      1.398645      -1.9452472     -0.029683738    1728         
      4730   0.92000066    -3.325216       1.3784038     -1.9468122      0.098534511    1728         
      4740   0.9378522     -3.3488505      1.4051501     -1.9437004      0.04422988     1728         
      4750   0.92577123    -3.3306453      1.3870496     -1.9435957     -0.020767673    1728         
      4760   0.9235927     -3.3267844      1.3837856     -1.9429988     -0.075908436    1728         
      4770   0.93998999    -3.3500334      1.4083531     -1.9416804     -0.12136535     1728         
      4780   0.93145846    -3.3404394      1.3955706     -1.9448688     -0.049840372    1728         
      4790   0.95385786    -3.374789       1.4291308     -1.9456582     -0.098778092    1728         
      4800   0.94847341    -3.3633367      1.4210635     -1.9422733      0.044478312    1728         
      4810   0.96305859    -3.3866608      1.4429159     -1.9437449     -0.030853513    1728         
      4820   0.9410344     -3.3541597      1.4099179     -1.9442418      0.064455509    1728         
      4830   0.94433361    -3.3602374      1.4148609     -1.9453765     -0.10356574     1728         
      4840   0.93174042    -3.3391697      1.395993      -1.9431767     -0.06931233     1728         
      4850   0.94305586    -3.3559374      1.4129465     -1.9429909     -0.11680142     1728         
      4860   0.90784896    -3.3020155      1.3601973     -1.9418182      0.053766688    1728         
      4870   0.92667008    -3.3301623      1.3883963     -1.941766      -0.030710275    1728         
      4880   0.94289663    -3.3547241      1.412708      -1.9420162     -0.10198762     1728         
      4890   0.93987272    -3.3486679      1.4081774     -1.9404906      0.069162635    1728         
      4900   0.96268241    -3.3854706      1.4423523     -1.9431183     -0.019048008    1728         
      4910   0.95043695    -3.3663001      1.4240054     -1.9422947     -0.051575145    1728         
      4920   0.94809877    -3.3641843      1.4205021     -1.9436822     -0.11522775     1728         
      4930   0.94459744    -3.3594605      1.4152562     -1.9442042     -0.0042298465   1728         
      4940   0.951892      -3.369649       1.4261854     -1.9434636     -0.059976583    1728         
      4950   0.93433654    -3.3415375      1.3998827     -1.9416548      0.15691424     1728         
      4960   0.94448869    -3.3562828      1.4150933     -1.9411895     -0.072021754    1728         
      4970   0.94976605    -3.3639987      1.4230002     -1.9409985     -0.044083954    1728         
      4980   0.95117816    -3.3653112      1.4251159     -1.9401953     -0.020569183    1728         
      4990   0.96110579    -3.383161       1.4399901     -1.9431709     -0.083375309    1728         
      5000   0.96342159    -3.3837646      1.4434598     -1.9403048      0.028564916    1728         
Loop time of 5.98518 on 1 procs for 5000 steps with 864 atoms

Performance: 1443564.651 tau/day, 835.396 timesteps/s, 721.782 katom-step/s
100.0% CPU use with 1 MPI tasks x 1 OpenMP threads

MPI task timing breakdown:
Section |  min time  |  avg time  |  max time  |%varavg| %total
---------------------------------------------------------------
Pair    | 1.7876     | 1.7876     | 1.7876     |   0.0 | 29.87
Neigh   | 3.8182     | 3.8182     | 3.8182     |   0.0 | 63.79
Comm    | 0.17302    | 0.17302    | 0.17302    |   0.0 |  2.89
Output  | 0.13474    | 0.13474    | 0.13474    |   0.0 |  2.25
Modify  | 0.043989   | 0.043989   | 0.043989   |   0.0 |  0.73
Other   |            | 0.0276     |            |       |  0.46

Nlocal:            864 ave         864 max         864 min
Histogram: 1 0 0 0 0 0 0 0 0 0
Nghost:           1883 ave        1883 max        1883 min
Histogram: 1 0 0 0 0 0 0 0 0 0
Neighs:          19927 ave       19927 max       19927 min
Histogram: 1 0 0 0 0 0 0 0 0 0

Total # of neighbors = 19927
Ave neighs/atom = 23.063657
Neighbor list builds = 2350
Dangerous builds = 0
Total wall time: 0:00:08
