864
 Atoms. Timestep: 0
1 1.32246 9.45223 8.79995
1 1.46547 0.561511 9.28978
1 1.41795 7.52882 9.40129
1 8.50856 8.77623 0.489179
1 2.2571 8.0563 9.24401
1 0.410511 2.81713 8.00106
1 2.20016 9.72619 1.30455
1 10.0293 2.1678 9.64329
1 4.88662 9.52659 9.66995
1 5.42327 9.40592 0.688056
1 5.16617 0.955973 0.904653
1 2.1274 0.399639 0.563295
1 6.33917 0.66641 0.505429
1 4.47433 0.760762 8.86824
1 4.81235 9.54694 3.15572
1 3.01781 3.45151 0.512355
1 6.7817 8.92444 9.20277
1 5.93732 1.77884 8.57019
1 7.00397 1.38318 0.709163
1 7.42207 1.0609 9.831
1 8.54231 8.10678 1.4323
1 8.47278 2.84032 0.151428
1 1.07992 9.03303 9.85768
1 8.56556 9.9229 0.482961
1 0.366812 9.88957 8.66562
1 0.167833 3.15165 9.20523
1 9.35481 3.61907 9.56288
1 9.90313 1.28052 1.464
1 2.73875 1.67392 9.39804
1 2.87592 2.45779 1.16527
1 0.450315 1.33239 9.41617
1 2.47019 2.3022 0.252989
1 3.07985 0.817763 0.248375
1 3.54756 4.44815 0.30762
1 4.83332 1.73874 10.0621
1 3.51817 1.81718 0.200329
1 5.57739 2.33183 9.54166
1 5.48503 1.06097 9.41201
1 6.56493 1.36084 9.2683
1 4.8552 2.89613 1.75077
1 6.44006 0.229672 9.4068
1 5.86371 2.78771 8.26066
1 8.08445 1.86031 0.162375
1 5.99692 1.69735 0.147148
1 9.00822 2.45673 9.42282
1 9.33765 0.573986 9.35591
1 9.57237 2.2651 1.6185
1 7.02349 2.17807 10.0378
1 9.0903 4.02595 7.46943
1 0.143021 4.04846 0.137546
1 0.860856 1.79526 0.0491207
1 9.01282 4.48643 9.89445
1 9.56114 2.71944 8.49689
1 2.64449 4.71348 9.20457
1 2.22713 3.19253 1.64897
1 1.59704 4.15402 8.9157
1 3.99223 3.47813 9.08236
1 5.25328 5.15302 9.50937
1 3.69995 4.44386 9.30649
1 2.69695 4.9961 1.8077
1 4.49859 2.47841 9.38469
1 4.39465 4.90685 10.0725
1 5.04602 3.17586 0.0234761
1 4.23686 4.89988 1.17413
1 5.69393 4.57229 8.70621
1 6.20034 3.00556 0.0488997
1 6.68734 3.28193 1.27968
1 7.38413 2.29713 0.89473
1 7.80048 2.52688 9.2602
1 8.50285 2.17849 1.30676
1 8.45734 3.79796 0.460211
1 7.96394 3.14588 1.23314
1 0.673975 5.96186 9.83386
1 1.10256 4.88193 10.0294
1 2.23305 5.14185 0.541345
1 8.28647 5.0876 0.454463
1 2.0241 4.03366 0.0130018
1 2.46442 6.16773 2.26689
1 1.76738 5.73031 1.58959
1 2.48898 3.56384 3.27537
1 4.35486 5.77011 0.549722
1 5.68002 5.45069 3.07818
1 2.00501 4.13282 1.06785
1 4.53522 5.9254 2.64368
1 3.74252 6.11553 7.20706
1 3.33499 5.35071 9.96217
1 3.06733 5.46892 0.953365
1 3.28758 5.13229 8.12043
1 7.24317 5.32631 0.765323
1 6.75907 4.58889 8.46728
1 5.46635 3.28722 0.921281
1 4.03211 3.55036 0.0384474
1 6.8724 4.98637 9.87936
1 9.45252 4.93035 1.05947
1 7.25382 3.18488 0.204426
1 7.82162 6.0924 0.904746
1 9.5244 6.73131 0.278576
1 3.15212 8.94775 1.20901
1 9.35969 5.61051 0.0361404
1 9.51169 7.67723 1.79625
1 1.74612 7.02707 0.762189
1 4.24231 7.3523 1.31355
1 3.33426 6.63516 1.86526
1 1.45423 7.81954 1.43054
1 2.82652 7.55813 1.55287
1 4.57768 7.31731 0.268337
1 7.58174 7.35183 1.88941
1 5.67675 0.824253 2.33918
1 6.59562 6.23337 0.455956
1 5.72045 7.2792 0.28909
1 5.62164 4.92289 2.19614
1 6.54929 6.78323 2.30369
1 5.95499 4.47236 9.77631
1 7.46919 5.83741 9.93437
1 8.52879 7.02946 1.08547
1 6.75741 7.51472 1.03224
1 9.82176 7.67915 0.73465
1 9.67245 7.68756 9.77341
1 8.58345 7.51715 2.3451
1 7.61439 9.24078 0.713416
1 1.14288 5.23282 1.00358
1 2.33546 6.96399 9.60261
1 1.22496 6.20201 2.58999
1 0.859606 7.64122 0.4811
1 1.17346 8.65788 0.728619
1 3.76487 8.71872 0.0229657
1 4.20567 9.09363 0.96734
1 1.89387 8.00922 0.10066
1 3.13557 8.30901 2.60188
1 4.6719 0.533184 10.0266
1 2.6696 0.0501032 2.34646
1 3.25692 9.95661 1.01509
1 6.05653 6.77977 1.35484
1 6.10366 8.77092 8.26871
1 5.82233 9.33096 9.17457
1 5.15709 6.35797 0.601701
1 6.68713 8.01988 0.0676764
1 6.2924 8.96443 0.124053
1 6.88082 7.92587 2.4312
1 5.23544 8.99863 1.73556
1 0.619767 7.06375 9.70908
1 9.40426 8.76562 1.30423
1 7.5875 8.71338 1.94925
1 7.64688 9.8107 1.78776
1 9.72872 8.59002 0.278214
1 0.901918 0.632362 0.09731
1 1.46919 9.60793 2.66216
1 1.0312 1.14566 0.982013
1 1.58811 1.70786 2.70269
1 1.46645 0.333429 1.47818
1 1.59602 8.64036 3.00574
1 1.99174 0.231696 3.45551
1 3.96494 0.787425 0.789331
1 4.30695 1.64809 1.32004
1 3.84683 8.42515 1.80161
1 3.04383 0.944255 2.72121
1 5.64518 0.44493 3.28944
1 7.03993 1.47108 2.15226
1 7.17217 1.80955 3.79884
1 5.06839 1.01222 3.89347
1 6.1257 1.3862 1.36085
1 7.8211 1.25866 1.27701
1 7.49577 0.553392 3.46463
1 8.86073 2.4559 2.55022
1 7.43846 0.326901 0.749108
1 0.24686 0.386778 1.16221
1 9.46411 9.9157 3.23957
1 7.78601 0.692398 2.20604
1 9.37557 0.425234 0.442388
1 10.0592 1.25965 0.379643
1 1.83982 1.56316 9.95722
1 2.03084 1.91523 1.82076
1 2.54174 0.659292 9.38837
1 3.39457 4.04957 1.24701
1 2.47715 1.4963 0.904911
1 1.50249 2.19178 0.926659
1 2.38485 0.871321 1.77761
1 3.35553 1.32028 1.44562
1 4.30487 3.52444 1.13048
1 3.00927 2.06701 2.3431
1 5.27778 2.28469 0.78375
1 6.27419 2.31127 0.926928
1 4.2796 2.30233 2.50873
1 3.8044 2.63387 1.61405
1 6.83662 2.81704 3.70046
1 6.12155 1.82563 2.2985
1 6.66832 0.974873 4.25267
1 7.83736 2.77983 3.30173
1 8.35898 0.888766 0.257681
1 10.0601 2.67762 2.65177
1 9.77547 1.76558 2.45988
1 6.72014 1.14199 3.10073
1 9.30017 2.32627 0.453783
1 0.2035 2.14021 0.809839
1 2.24076 2.71481 2.69605
1 0.347264 3.2068 1.28061
1 2.17605 3.97714 2.34993
1 3.59975 4.34615 2.20181
1 3.09601 3.39655 2.37015
1 1.9511 4.05947 4.90984
1 2.91199 3.74863 9.5826
1 2.75021 5.45661 3.81123
1 3.27951 3.71735 4.12949
1 1.55076 5.51634 3.43078
1 4.11622 3.38222 2.3975
1 5.16813 3.42109 2.78068
1 5.99542 2.72425 3.06985
1 3.15962 5.20069 2.75768
1 5.42916 4.21542 4.07415
1 7.86481 1.41577 3.09344
1 8.29211 2.01645 3.81102
1 6.18235 3.80191 3.43774
1 9.12095 1.33571 0.894671
1 7.26226 3.98322 1.933
1 8.01974 1.92199 2.26407
1 7.90167 3.94742 3.28964
1 8.89065 3.1145 1.60631
1 1.27206 4.59224 1.81452
1 1.50402 3.67961 3.07806
1 9.40317 5.91305 2.80054
1 1.24433 2.73157 2.1147
1 2.53463 6.40645 1.15064
1 1.98233 5.19516 2.44396
1 0.320872 4.23309 1.26423
1 2.60956 4.53793 3.34843
1 3.64001 5.43161 1.87776
1 4.73343 5.11128 5.34188
1 4.49832 5.18395 3.45359
1 5.6175 6.15636 2.05462
1 5.16488 4.12333 1.69118
1 6.52827 4.58752 2.79901
1 5.37215 4.48731 3.09037
1 6.10649 3.87155 2.15205
1 6.4123 4.01503 0.534465
1 8.78464 4.35174 2.6342
1 6.58962 4.65881 1.63203
1 7.0772 3.1794 2.76029
1 8.4474 4.34611 1.41241
1 9.36736 2.73654 4.6154
1 7.72436 5.07568 1.68694
1 0.518675 2.9485 0.217215
1 9.75587 6.7569 1.25476
1 0.787193 5.325 2.22883
1 0.606292 6.64012 0.585416
1 1.63141 6.00469 0.447934
1 2.51903 7.16842 2.56952
1 2.42026 7.84739 3.29638
1 1.77254 6.85558 1.8031
1 3.97796 7.57007 2.39834
1 4.93853 8.05345 2.0018
1 3.28529 7.25732 3.3851
1 4.91027 7.7599 3.02269
1 5.14361 5.5394 1.36394
1 6.08107 7.90889 1.77099
1 4.06111 7.99231 3.55154
1 3.58526 0.397246 1.9071
1 7.05419 6.50033 1.38262
1 9.16426 7.98183 3.21669
1 5.50478 6.63213 3.09897
1 6.55245 8.62907 3.01901
1 9.04826 5.24915 1.8626
1 8.9853 5.96892 1.02583
1 9.6104 3.99103 1.78028
1 8.93447 6.57471 1.97322
1 9.78878 9.64398 0.787638
1 0.133979 0.0576042 9.96908
1 0.809231 6.08092 1.43456
1 1.56818 9.01179 1.77549
1 3.52413 9.38517 2.0805
1 2.35964 9.05609 2.32136
1 0.6413 8.8469 3.44941
1 2.10007 8.02379 2.19456
1 2.24849 8.41696 1.18832
1 4.76279 0.00400645 0.872353
1 3.89841 9.35616 4.067
1 3.17368 8.71538 3.6684
1 6.71991 0.562349 1.77795
1 5.63661 9.76405 2.39031
1 4.54888 9.70524 2.10948
1 5.46525 8.61855 2.67143
1 6.72263 8.73237 1.02698
1 6.62056 9.52782 1.86692
1 6.83604 9.91699 2.74043
1 6.94141 9.69635 10.0043
1 7.95064 6.05922 1.89665
1 8.71264 9.9536 2.22471
1 9.69981 8.57677 2.21401
1 8.32474 9.19259 1.45769
1 9.77895 9.71067 1.96912
1 0.702195 0.0141405 2.13054
1 0.29931 10.0206 4.22043
1 0.674059 1.0656 2.17543
1 0.3918 9.70113 3.10539
1 3.00275 0.0484089 3.74248
1 2.44614 9.39658 3.27013
1 9.91628 9.89077 5.39725
1 3.16156 8.88294 4.79627
1 4.1329 0.318748 4.01491
1 4.20778 8.82434 2.75995
1 2.43046 0.643609 5.84246
1 4.05591 1.27834 2.26507
1 5.37839 0.573012 5.75708
1 5.56085 9.66489 5.53363
1 4.27266 2.85283 3.37625
1 5.89926 9.54535 3.37545
1 6.63385 1.02449 5.37819
1 6.9615 9.8055 3.86479
1 5.91936 1.78689 5.66459
1 8.19704 10.0038 4.00618
1 9.93606 0.820048 3.4083
1 8.15637 1.06989 4.19087
1 0.174661 2.67183 3.73312
1 1.76222 1.1799 3.87142
1 1.14832 3.60134 4.12228
1 0.892422 0.434436 3.42737
1 9.39287 3.61081 2.85176
1 1.69468 0.733874 2.51609
1 2.29125 1.95763 3.38626
1 4.0115 1.27623 5.32343
1 1.06427 3.63044 5.21614
1 2.82888 1.12153 4.05039
1 5.21741 1.78288 1.77571
1 3.24637 2.73847 3.11873
1 2.38436 3.13083 4.21563
1 4.72257 9.33504 4.8652
1 5.39784 3.1066 3.8631
1 3.79677 1.4584 4.18841
1 3.74002 1.76935 3.25512
1 5.89206 2.83448 1.84229
1 9.00149 1.6153 3.16235
1 6.35841 1.04308 6.43794
1 5.99285 1.83713 3.63074
1 8.86151 1.35894 2.09757
1 8.23947 3.35708 2.42986
1 0.467809 2.06099 1.85813
1 7.74536 2.41098 5.64416
1 0.432792 3.63146 3.40271
1 9.12132 3.87257 3.75321
1 2.51287 4.87192 4.64665
1 0.81445 4.5356 3.19807
1 3.50344 4.91814 6.18931
1 2.92825 4.52222 7.1662
1 3.06606 3.6933 6.41494
1 9.10047 4.82493 4.40877
1 0.898331 2.62343 3.09394
1 2.03033 3.47015 5.74162
1 4.24191 4.36886 4.60423
1 3.933 4.05962 6.97473
1 3.70418 4.10832 3.15376
1 4.95568 5.17252 4.33532
1 5.16265 3.6152 4.97045
1 6.68631 5.10442 5.00046
1 5.35584 2.37194 4.87742
1 7.49786 4.72487 2.67334
1 9.03396 2.71513 3.56642
1 7.19293 3.73955 4.13137
1 6.87005 2.134 2.93035
1 8.14504 3.74418 5.73542
1 7.10177 2.44204 1.8359
1 8.2918 3.2475 4.14374
1 0.524894 3.68561 2.2585
1 2.26572 6.28102 3.4393
1 8.89389 3.7814 4.83051
1 0.461514 5.57698 3.11293
1 1.67907 4.60038 3.92349
1 4.26756 6.87069 3.20092
1 2.89676 6.40939 4.23718
1 2.70797 5.83115 5.13857
1 3.3418 4.25841 5.1143
1 3.34519 6.26265 3.01834
1 4.81955 6.15873 3.77938
1 2.03327 7.19083 4.01674
1 4.5057 4.64908 2.307
1 8.36473 4.88113 3.54976
1 6.29567 4.79536 3.80603
1 6.96752 5.7867 2.31964
1 7.67543 5.81796 3.62565
1 8.29023 5.35453 2.5758
1 8.08044 6.44843 4.36402
1 7.47858 6.70892 2.9386
1 8.06663 4.27991 4.4488
1 9.52734 3.40005 0.536885
1 8.27125 5.43507 4.47795
1 5.72161 7.51674 4.79036
1 0.200456 8.04678 2.99203
1 0.40979 8.28268 1.30594
1 9.71974 5.17286 3.6729
1 9.35664 6.38771 4.65361
1 9.76039 4.96843 2.5508
1 4.20407 6.41729 5.18615
1 1.67883 5.1319 5.25743
1 0.903148 8.15074 2.19254
1 6.3293 5.57926 1.25422
1 3.71177 0.026221 2.95977
1 0.725842 7.11479 1.62172
1 5.14915 6.47884 4.82578
1 5.93339 7.53926 2.78572
1 6.07611 6.98194 3.87077
1 4.72526 7.35878 5.03556
1 4.9471 6.9169 2.1533
1 4.43293 6.2416 1.60875
1 3.77889 9.80727 4.9801
1 7.80786 7.86837 3.07591
1 5.95672 8.15821 3.78194
1 9.6768 7.08182 2.70643
1 0.528958 9.34388 1.35979
1 9.13839 7.16347 4.01135
1 8.601 6.77763 3.08884
1 9.5679 0.523453 2.52632
1 0.53495 9.09454 2.39966
1 8.50054 8.99469 3.73471
1 9.70297 8.96671 3.37215
1 0.080855 6.2978 2.14301
1 0.916019 7.81777 3.71946
1 0.230427 9.02936 4.43699
1 0.975858 6.53301 4.16017
1 4.02914 8.3602 4.5917
1 4.22152 0.830092 3.21184
1 3.5749 7.81905 6.42306
1 3.2992 7.95882 5.33864
1 5.05119 7.19765 3.9901
1 5.02287 1.75725 2.82008
1 5.97065 9.46808 4.46963
1 5.12211 8.34392 4.97862
1 4.97612 8.82769 3.98254
1 6.86182 7.53554 3.41793
1 8.45849 8.9213 2.6781
1 7.14647 6.89585 4.15185
1 7.85553 9.72675 2.9132
1 9.12893 0.455338 1.53671
1 7.56765 8.7023 3.93201
1 8.47709 0.533817 3.09463
1 9.10242 0.438396 4.01378
1 1.18185 0.421578 4.4207
1 1.43568 1.43575 7.69924
1 0.615597 1.60602 4.28319
1 1.52046 9.50443 3.80263
1 2.16516 0.333567 4.49941
1 1.38441 0.62532 6.41142
1 0.870079 2.2881 7.13495
1 1.09919 9.59308 4.8533
1 5.45739 1.32128 4.93921
1 4.69562 0.519029 5.04147
1 2.14746 1.35467 6.73269
1 2.75296 9.8119 5.35294
1 5.10776 9.983 4.14296
1 5.85749 9.9214 6.47874
1 4.51355 1.63337 7.33895
1 7.85616 1.70592 6.52068
1 8.56682 0.90586 6.31627
1 0.483923 2.54572 4.75349
1 7.74277 0.955363 5.72101
1 7.5767 0.395671 4.77716
1 9.36619 9.45792 4.39897
1 8.92545 0.14542 5.10451
1 9.59863 1.77205 4.40281
1 1.45967 2.293 4.02121
1 0.742193 4.58371 4.98371
1 1.52105 2.65714 5.23739
1 0.132215 3.4786 4.4754
1 1.30499 3.09006 6.37568
1 2.29516 1.64617 4.91533
1 1.52387 0.28008 5.40099
1 1.13546 4.41348 5.95486
1 2.98975 2.87491 5.07927
1 4.51368 3.82247 3.69761
1 4.85784 1.76061 5.6427
1 1.29378 1.70502 6.00196
1 3.18726 2.33647 4.23927
1 4.09551 3.25558 4.56478
1 6.86729 1.93917 6.14337
1 3.30709 2.72528 6.13094
1 8.86466 1.89467 5.9746
1 7.2515 0.744075 6.7952
1 8.72891 2.88052 5.60961
1 6.4177 3.23974 6.51874
1 7.43682 1.66 4.87901
1 0.682275 1.42048 3.1123
1 0.246889 3.74215 6.18497
1 9.80089 3.03657 5.45819
1 9.86161 4.1731 5.14071
1 1.36621 5.47735 6.70393
1 0.686829 4.71629 6.92332
1 1.41329 7.36768 2.74048
1 0.300579 4.50692 4.06027
1 9.48432 5.61786 6.61856
1 2.57222 5.67054 7.1459
1 1.00842 6.4798 6.42864
1 3.53221 4.8642 4.10127
1 3.95066 5.06361 7.22713
1 3.80451 3.45148 5.60521
1 2.15382 6.55701 6.74435
1 5.64055 4.57067 5.14549
1 6.92154 5.93191 4.45367
1 6.18592 3.04082 4.6747
1 4.73788 2.19248 4.08764
1 6.59153 4.11383 7.08878
1 7.55523 2.63413 4.4638
1 8.56332 2.14519 4.84314
1 5.49923 2.92473 5.6718
1 9.63364 2.61572 6.4871
1 0.693293 5.45633 5.88511
1 9.22015 3.78692 5.91382
1 7.28754 4.22326 5.3142
1 3.73973 5.34525 5.04192
1 10.0381 5.37467 4.80559
1 2.99994 7.78473 4.28709
1 0.848425 5.97762 5.02038
1 1.61187 7.05292 5.84241
1 2.57869 4.97962 5.77437
1 3.20826 6.89905 6.82714
1 1.25821 7.52669 6.84344
1 3.79443 5.85991 3.92466
1 4.76335 5.99829 5.90092
1 3.5151 6.10267 5.94801
1 4.50264 7.03005 6.56013
1 5.74864 5.43286 5.63028
1 6.58607 5.7497 3.37482
1 6.39972 4.64069 5.94178
1 6.24886 6.30847 5.0839
1 6.32347 3.70925 5.56105
1 9.03285 8.54209 5.48026
1 8.36462 6.26917 5.42415
1 7.3089 4.73704 3.81068
1 9.07762 5.52405 5.20924
1 8.91602 5.85773 3.75097
1 8.16295 4.79025 5.49861
1 8.28996 7.04943 6.97053
1 9.61158 4.87557 5.84984
1 0.885787 5.26926 4.16196
1 1.86926 5.94172 5.87262
1 1.28478 8.57414 4.77677
1 1.75282 9.26563 5.64613
1 2.02576 8.48984 4.03899
1 3.29394 7.07435 5.00748
1 2.15815 8.12219 5.07428
1 3.9404 6.99889 4.17228
1 4.01298 8.86959 5.48327
1 5.46497 6.02907 7.64585
1 5.25473 8.31535 7.87947
1 5.29776 7.02972 5.83673
1 7.43285 6.6652 5.54814
1 7.59377 5.54935 5.30466
1 5.66661 8.03155 5.96228
1 8.7049 7.55632 5.21713
1 6.58495 8.84242 4.14995
1 6.24814 7.14822 6.20711
1 7.62852 6.37346 6.64719
1 7.72438 6.03503 7.60084
1 1.85381 5.73949 4.40678
1 10.0756 6.25661 3.89797
1 7.80881 8.25504 5.05366
1 0.621486 8.88202 5.61056
1 9.85375 7.87898 4.03483
1 10.0252 7.94276 5.20664
1 9.02304 9.73071 5.9682
1 1.15658 9.64406 6.48984
1 2.17075 9.35784 4.68639
1 0.612941 0.630838 5.68943
1 1.31539 1.26806 4.98901
1 4.51179 7.9988 5.92869
1 3.57631 0.20608 5.93175
1 6.41003 8.15247 7.35076
1 3.01451 1.71148 5.62811
1 6.24328 8.68996 5.15868
1 5.8734 0.432119 4.73997
1 7.957 9.96948 5.76452
1 4.04253 8.71636 6.60083
1 7.03291 7.89461 5.71382
1 8.73845 1.15855 5.25992
1 8.7973 8.24046 4.47172
1 6.9429 0.147764 5.90037
1 7.21204 9.40525 4.94515
1 0.570554 6.84405 3.16072
1 0.169978 6.96107 4.58287
1 8.26054 9.26218 4.94796
1 0.0312844 0.82673 4.78019
1 0.496895 2.5595 5.78582
1 1.49357 9.46483 7.54313
1 0.0390995 9.45439 7.26531
1 2.30777 9.32394 6.64997
1 2.90089 8.74096 5.91283
1 3.9382 0.684079 7.11739
1 0.345532 0.367704 6.64542
1 3.93717 2.27765 5.02646
1 4.39804 0.907311 6.2452
1 4.33033 8.56093 8.28717
1 4.50187 0.175208 7.95139
1 7.37172 8.00498 7.87253
1 6.47099 8.83228 6.23646
1 5.03021 0.338003 6.92932
1 5.98412 9.14076 7.22858
1 5.30804 1.28118 6.57941
1 9.33939 8.96109 7.76305
1 8.25506 2.24549 8.37824
1 7.20292 8.97787 7.8662
1 9.81965 1.84856 5.4035
1 9.38523 1.248 6.90404
1 9.52016 0.857966 5.87371
1 8.44821 2.56513 6.62767
1 0.192582 1.66836 6.36263
1 2.12317 2.32844 6.0777
1 9.99473 1.12797 8.42729
1 8.40482 3.40636 7.9558
1 2.12987 0.391274 7.26031
1 3.17458 1.0486 6.37044
1 3.34386 0.320588 7.91338
1 1.48486 2.38784 7.96001
1 3.12427 0.74103 5.12234
1 3.57806 2.11706 7.43999
1 3.20559 1.76981 8.48965
1 3.44776 0.750978 8.91378
1 6.6532 9.71563 8.27236
1 6.77338 1.63982 7.28872
1 6.80202 2.79862 5.45053
1 4.90212 2.30803 6.64212
1 5.97631 0.738746 7.34843
1 7.4133 3.03764 6.50383
1 8.08945 9.97806 8.72569
1 7.50725 1.60133 8.74835
1 6.84566 2.12004 8.21807
1 9.28726 2.87824 7.55296
1 2.35513 2.12557 7.56597
1 7.52323 3.10919 8.37902
1 8.82578 5.65515 7.53805
1 9.74411 4.57978 6.86675
1 0.0444504 3.63701 7.22207
1 0.209389 5.99836 7.34317
1 1.09606 3.41442 7.25132
1 1.84058 4.09374 6.68653
1 0.339995 5.4871 8.62941
1 1.33339 4.3652 7.73656
1 2.09296 3.12573 7.02601
1 2.89084 3.48689 7.51618
1 4.6824 5.85409 6.93368
1 2.09259 3.39598 8.13814
1 6.48036 1.97326 4.68424
1 5.84696 4.00798 7.90809
1 3.94078 1.85688 6.22945
1 5.50272 4.25718 6.5881
1 7.68178 4.17745 6.46781
1 7.56585 3.97201 7.5483
1 6.02853 2.17812 6.68122
1 7.86808 4.23536 8.51545
1 7.82077 2.55225 7.47135
1 8.62726 4.57117 6.45754
1 9.55325 4.96066 7.9187
1 9.78115 7.11612 8.04312
1 8.53176 5.55858 6.09156
1 1.13111 3.04593 8.68703
1 0.565013 6.80403 5.55573
1 0.399227 7.83516 7.99764
1 0.44496 4.6405 8.14907
1 2.17661 6.78775 4.9853
1 2.41807 7.5044 7.32272
1 1.69165 6.60069 7.76958
1 1.05917 5.44704 7.83176
1 5.88538 6.1602 6.41018
1 4.63482 4.91467 6.35895
1 4.59688 6.84525 7.53804
1 6.75082 3.01561 7.642
1 5.85155 5.9033 4.12753
1 5.94065 5.16394 6.82586
1 4.64208 4.05214 5.73083
1 7.62809 5.18485 6.39426
1 8.85862 7.61571 7.70094
1 8.26935 4.80694 7.47019
1 6.74188 5.87275 6.92909
1 10.0723 6.89555 6.51741
1 1.13739 7.30038 4.72391
1 9.56109 6.17146 8.18386
1 9.26763 6.65679 7.21505
1 8.93961 6.58391 6.20326
1 2.23041 8.01823 6.14774
1 3.33733 7.04924 9.01599
1 9.94322 9.0974 6.29302
1 2.69694 9.51604 7.60827
1 2.20526 8.5913 7.32644
1 3.62485 6.35613 8.29361
1 0.912931 7.80537 5.58135
1 4.45076 7.99023 7.2742
1 3.46413 8.62938 7.49526
1 5.3976 7.42851 7.19137
1 3.28542 8.1884 9.34742
1 6.03269 7.68383 8.27058
1 5.20214 8.26415 0.0325699
1 5.82483 6.64772 8.52216
1 4.91896 7.45949 8.50003
1 6.75451 5.61928 5.98327
1 8.77666 9.41434 7.12349
1 6.8071 7.10052 8.44925
1 5.11831 8.93351 6.103
1 7.59651 7.04713 7.68495
1 8.13188 7.65193 6.12101
1 9.95064 6.06659 5.70684
1 9.16308 7.58443 6.48801
1 9.52307 7.11941 5.5295
1 0.0966068 8.05521 6.26975
1 2.75659 6.59731 7.73579
1 2.1672 8.77861 8.39044
1 1.91478 9.77537 9.57925
1 1.76116 0.2459 8.24882
1 2.8351 9.11544 9.38126
1 2.31776 1.13945 8.34207
1 3.76422 9.67991 7.34706
1 4.58662 9.92784 5.79198
1 4.69562 9.49355 8.66556
1 2.9438 0.0494822 6.70373
1 2.80339 7.17866 5.8594
1 6.83899 7.80181 4.55769
1 7.25569 0.376892 7.80927
1 6.70291 9.84522 7.20388
1 8.08088 8.81567 6.1619
1 8.16824 7.48764 4.03452
1 9.05683 8.59437 6.63592
1 8.1494 0.355129 7.13623
1 8.22439 8.36111 7.27894
1 9.42835 0.201972 6.85894
1 9.72159 8.16767 7.27007
1 9.19369 9.3792 8.72884
1 8.96085 8.39226 9.42698
1 0.854929 0.295838 7.53766
1 1.02585 9.72512 0.57502
1 9.23836 9.62239 9.79297
1 9.87515 0.143848 7.83817
1 2.7031 9.86721 8.74621
1 1.03822 1.02878 8.52009
1 2.87097 9.92031 0.0477265
1 4.99989 8.45763 9.12606
1 4.87596 1.72173 8.75747
1 5.56082 9.64814 8.01612
1 3.93325 9.8574 0.23328
1 4.86866 9.12966 7.34312
1 5.24002 1.00154 8.0152
1 5.68208 10.0653 10.0077
1 4.73104 0.662452 1.76289
1 7.17633 8.02554 9.01765
1 8.14065 9.1815 8.02314
1 7.46887 8.73514 9.84115
1 6.19173 0.729953 8.38162
1 7.77192 0.0553119 9.69989
1 10.0244 9.04248 9.30646
1 9.14854 1.48035 9.93163
1 8.37933 1.26599 9.2392
1 0.327469 1.26415 7.48308
1 9.65792 3.87221 8.34862
1 2.08508 3.08796 9.29505
1 8.27284 0.916009 8.29447
1 2.41122 2.36601 8.60871
1 1.56817 1.80074 8.86967
1 4.04033 1.3559 9.59461
1 0.569648 2.16561 8.83157
1 3.9517 3.74226 8.03679
1 3.70203 3.12809 7.03038
1 3.68297 9.79689 9.19174
1 3.22317 2.58212 9.53136
1 4.28956 2.53255 0.480807
1 5.7568 3.21801 7.25633
1 3.94812 1.1363 8.11653
1 4.04814 2.37739 8.41111
1 7.28984 0.593747 8.95035
1 7.72567 1.38173 7.61213
1 6.48001 2.57026 9.06473
1 4.54049 2.74285 7.56286
1 9.18985 0.912133 7.86757
1 0.347421 4.50442 9.18872
1 8.8187 1.88894 7.50089
1 8.42207 3.5366 9.37036
1 9.93824 2.07884 7.34111
1 1.08121 3.98734 0.533371
1 9.16135 1.77813 8.58955
1 9.00866 6.38055 9.3689
1 3.17308 2.9512 8.46788
1 2.14085 5.02492 8.10819
1 1.30767 2.60981 9.66331
1 1.03095 3.59242 9.65348
1 2.96311 1.27401 7.37182
1 4.96034 3.30935 6.42411
1 4.85624 4.10068 9.44482
1 1.67267 3.14161 0.502874
1 5.45142 1.97782 7.64077
1 4.97434 3.44297 8.55192
1 5.86423 3.36287 9.2107
1 5.02227 4.27416 0.65926
1 8.53222 5.65721 8.51287
1 8.81778 4.42207 8.66416
1 7.83142 4.5411 9.6545
1 6.66428 3.59862 8.585
1 8.44844 3.5846 6.74816
1 9.46714 5.4358 8.973
1 7.62648 6.29973 8.9065
1 7.60259 5.22509 8.7355
1 0.661192 6.9816 7.43035
1 1.36222 5.1203 8.94443
1 0.932463 6.38797 8.46695
1 7.49026 4.30836 0.682839
1 3.02923 5.83519 9.08208
1 2.13498 5.64129 9.58811
1 0.699004 7.36103 8.76604
1 2.14356 6.08558 8.55213
1 5.16494 4.87279 7.48816
1 4.69941 4.7138 8.49068
1 2.7835 4.12871 8.34416
1 4.23087 5.56438 9.12959
1 4.82549 3.9399 7.49313
1 7.11315 7.56523 6.75179
1 6.13197 5.06232 7.83512
1 5.30786 5.65014 8.59672
1 6.78606 3.93397 9.6084
1 8.31817 6.69034 0.126598
1 5.69447 5.46648 0.294421
1 6.38188 5.38295 8.87386
1 1.32216 8.51714 6.34903
1 6.709 6.23758 9.37763
1 8.52733 5.38519 9.60035
1 7.13809 4.94735 7.42362
1 1.2342 8.43812 8.84252
1 2.6881 7.28646 0.535624
1 1.40764 6.4741 9.38084
1 0.157149 5.53538 0.652474
1 2.08412 7.22492 8.44034
1 4.63971 6.53034 8.77599
1 2.99107 6.30174 0.0626199
1 4.68426 8.23635 0.948038
1 4.28258 6.41351 9.80467
1 4.16878 7.57322 9.28578
1 5.54967 6.30257 9.49393
1 5.28573 7.36854 1.18605
1 4.47063 5.71661 7.96245
1 6.51316 6.90187 7.43835
1 5.22244 7.36319 9.46258
1 5.9201 8.16232 9.43308
1 6.73342 5.97368 7.95413
1 7.29644 8.63617 6.89877
1 6.30623 7.24174 9.40679
1 7.2076 6.99099 10.0423
1 9.50641 8.04803 8.49562
1 1.43283 7.83396 7.83769
1 2.8378 7.95222 8.15478
1 8.12952 7.90959 9.69058
1 0.285544 9.00549 8.17427
1 8.81825 10.0131 7.95055
1 0.126842 6.47009 9.02856
1 0.483503 8.12549 9.56086
1 3.70748 6.54178 0.809613
1 2.85544 8.35377 0.0979108
1 5.78119 8.47174 0.899964
1 3.53156 7.97532 0.857758
1 2.14535 9.10906 0.379654
1 3.44337 9.20549 8.27318
1 3.5289 7.17953 10.0167
1 5.43841 0.182997 8.85895
1 7.51267 9.70014 6.70682
1 8.42819 8.2528 8.62065
1 3.80816 7.49724 8.09169
1 5.63519 0.143664 1.48757
1 7.90444 9.03496 8.94447
1 7.89752 7.23382 8.84954
1 7.80761 8.00339 0.655295
1 6.46191 9.79486 0.879577
1 8.94041 7.32635 8.98747
1 0.882582 8.58305 7.29731
1 8.46412 6.62286 7.93073
1 8.81651 7.6435 0.314701
864
 Atoms. Timestep: 10
1 1.20432 9.36624 8.78642
1 1.61186 0.743658 9.25493
1 1.31224 7.39459 9.68451
1 8.66927 8.67459 0.496611
1 2.20452 7.99657 9.22834
1 0.282449 2.93352 7.7906
1 2.29343 9.55055 1.38848
1 0.0557715 2.17674 9.80476
1 4.83784 9.47232 9.51487
1 5.05006 9.30138 0.660572
1 5.19308 0.964277 0.694349
1 2.13352 0.358711 0.584394
1 6.26177 0.717963 0.26091
1 4.24987 0.345025 8.98163
1 4.74557 9.91051 3.10317
1 2.99158 3.30459 0.400624
1 6.84299 8.88565 9.21919
1 5.90748 1.63819 8.53342
1 7.24287 1.50835 0.834146
1 7.58972 1.12919 9.66064
1 8.49308 8.18266 1.4865
1 8.60814 3.09318 0.350803
1 0.925598 9.18703 9.72155
1 8.51579 9.72759 0.679446
1 0.555528 0.0944293 8.74407
1 0.339184 3.10646 9.30927
1 9.41835 3.7251 9.39876
1 9.88339 1.19172 1.43072
1 3.04144 1.57836 9.64547
1 2.55568 2.6285 1.17193
1 0.572876 1.16618 9.43766
1 2.41204 2.19912 9.98685
1 3.06052 0.797839 0.220055
1 3.03189 4.52371 0.250448
1 4.84869 1.85106 9.97097
1 3.42711 1.99232 0.54148
1 5.70883 2.36924 9.30439
1 5.55931 1.17109 9.48181
1 6.5782 1.33754 9.36146
1 4.76019 2.67864 1.49769
1 6.54873 0.312711 9.41365
1 5.89042 2.86287 8.02845
1 8.23442 2.01081 0.33712
1 6.15822 1.71126 0.249944
1 8.98075 2.45656 9.60737
1 9.22166 0.584978 9.22512
1 9.62197 2.30641 1.6307
1 7.09049 2.1239 10.0292
1 9.02174 4.12287 7.52946
1 0.0303124 4.06989 0.192229
1 1.04927 1.90172 0.205603
1 8.9969 4.50591 0.0196998
1 9.71827 2.54723 8.59609
1 2.67591 4.88239 9.38063
1 2.04048 3.44825 1.59063
1 1.80459 4.35869 8.84747
1 4.00833 3.56311 8.90453
1 5.19323 5.16707 9.36795
1 3.70638 4.67584 8.96129
1 2.8934 5.04597 1.59381
1 4.52688 2.56931 9.12434
1 4.37394 4.87073 0.00359936
1 4.94363 3.03145 0.0122547
1 3.8986 4.47576 0.945583
1 5.69887 4.37244 8.79249
1 6.22821 2.88806 0.108776
1 6.41882 3.45026 1.27783
1 7.48608 2.4989 1.04347
1 8.02956 2.50255 9.51681
1 8.52508 2.40409 1.31514
1 8.39504 3.96209 0.762465
1 7.82224 3.35046 1.35638
1 0.71222 5.80116 9.79448
1 0.907542 4.78955 9.75827
1 2.37831 5.25957 0.379258
1 8.47439 5.21399 0.829295
1 2.08509 4.11207 9.94341
1 2.72379 5.88071 2.21568
1 2.08434 5.67879 1.24254
1 2.4254 3.48975 3.35269
1 4.43517 5.64635 0.605458
1 5.73163 5.58242 3.20383
1 2.27037 4.27579 0.874005
1 4.70438 5.78858 2.65688
1 3.58955 6.07672 7.29012
1 3.56523 5.5501 9.98228
1 3.45735 5.49171 0.91479
1 3.01367 5.24511 8.21879
1 7.02251 5.2608 0.788911
1 6.72122 4.43508 8.55421
1 5.51875 3.09614 0.818195
1 3.9166 3.59425 0.0405599
1 6.57112 4.90006 10.0526
1 9.69877 4.77341 0.897456
1 7.43791 3.17572 0.180345
1 7.88765 6.46958 0.592549
1 9.24326 6.61468 0.343557
1 3.08262 8.8447 1.44891
1 9.23231 5.5996 0.342122
1 9.71936 7.7184 1.94314
1 1.60959 6.95362 0.554761
1 4.35136 7.33496 1.35021
1 3.48299 6.52126 1.84978
1 1.23655 7.64272 1.30578
1 3.15906 7.63434 1.50052
1 4.73679 7.51981 0.29146
1 7.72103 7.22786 1.82179
1 5.74464 0.936547 2.40999
1 6.63359 6.22217 0.28426
1 5.93635 6.98974 0.220957
1 5.7817 5.0073 2.1736
1 6.60936 6.88998 2.42326
1 5.70992 4.35243 9.80492
1 7.51701 5.71934 0.00126171
1 8.57375 7.03342 1.22065
1 6.71517 7.36 1.22763
1 9.79606 7.44845 0.828345
1 9.85533 7.80878 9.77644
1 8.7267 7.53023 2.31735
1 7.59895 9.28573 1.04711
1 1.48324 4.8483 0.658242
1 2.27088 6.93323 9.69821
1 1.25276 6.2897 2.40137
1 0.70913 7.79478 0.461706
1 1.09094 8.72826 0.538472
1 4.05917 8.59309 9.93404
1 4.09265 9.27251 1.02588
1 1.86665 8.10605 0.140016
1 3.05456 8.2876 2.30628
1 4.77758 0.584813 9.865
1 2.59443 9.93999 2.44738
1 3.43868 0.105845 1.02982
1 6.01033 6.60518 1.20586
1 6.25766 8.66158 8.19958
1 5.77354 9.27205 9.03493
1 5.11283 6.44353 0.658583
1 6.59509 7.93553 0.140129
1 6.08869 8.89607 0.0405673
1 7.05756 7.74509 2.32074
1 5.45101 9.01833 1.67713
1 0.503328 6.83112 9.72236
1 9.48012 8.64081 1.27918
1 7.72152 8.82032 2.35459
1 7.53428 9.80678 1.97009
1 10.0028 8.62162 0.334454
1 1.13351 0.812529 0.335195
1 1.58521 9.57014 2.74559
1 0.907139 1.34002 1.19106
1 1.53235 1.62121 2.72222
1 1.37571 0.170152 1.39864
1 1.61776 8.53233 3.07482
1 1.89769 0.367434 3.69506
1 4.16556 0.889736 0.625872
1 4.38219 1.79336 1.05432
1 3.98147 8.433 1.86577
1 2.83742 0.887942 2.69134
1 6.04552 0.411687 3.72944
1 7.09516 1.3414 2.03516
1 7.23846 1.91625 3.99268
1 4.86883 0.984734 3.9566
1 6.30738 1.15029 1.25372
1 8.00923 1.35733 1.46044
1 7.51529 0.564609 3.37325
1 8.87299 2.48633 2.30437
1 7.4944 0.517693 1.02117
1 0.266038 0.30507 1.0105
1 9.13309 9.82169 3.33192
1 7.99356 0.616925 2.27656
1 9.40267 0.441237 0.242264
1 0.152826 1.10631 0.35114
1 1.99861 1.37311 9.88619
1 2.32384 1.78104 1.91146
1 2.53316 0.42008 9.60747
1 3.01486 3.81922 1.35984
1 2.30093 1.39388 0.781293
1 1.54983 2.22736 1.17279
1 2.38838 0.613943 1.5715
1 3.30626 1.12371 1.24865
1 4.46885 3.61415 1.16055
1 3.2458 2.12363 2.18999
1 5.34073 2.1348 0.825402
1 6.43035 2.28575 1.20903
1 4.35299 2.30201 2.40355
1 3.61055 3.02745 1.56984
1 6.41876 2.65799 3.88482
1 6.17528 1.87825 2.20049
1 6.90899 0.793143 4.16227
1 7.91298 2.75919 3.37257
1 8.29532 0.704339 0.288587
1 9.9784 2.70849 2.65145
1 9.75411 1.61317 2.5279
1 6.5452 1.21629 3.01207
1 9.25494 2.29716 0.599041
1 0.143431 2.03368 0.824264
1 2.28301 2.70607 2.50784
1 0.0427422 3.18988 1.4655
1 2.57178 4.26407 2.2432
1 3.55357 4.30422 2.16499
1 3.00581 3.36208 2.30762
1 2.06322 3.825 5.04324
1 3.1099 3.88459 9.43964
1 2.47357 5.47649 3.64318
1 3.07044 3.77586 4.29426
1 1.5184 5.47581 3.2545
1 4.08529 3.47271 2.50021
1 5.13373 3.31801 2.71991
1 5.98173 2.5751 2.86477
1 3.16172 5.15222 2.90353
1 5.52199 3.99707 4.02323
1 7.93718 1.51483 2.77839
1 8.2049 1.88793 4.03857
1 6.06346 3.52317 3.35295
1 8.97621 1.242 0.899523
1 7.12667 3.83909 2.15218
1 7.83184 2.47444 2.38696
1 7.90087 3.95223 3.17214
1 8.98199 3.34586 1.35591
1 1.59545 4.18867 1.98639
1 1.48853 3.56656 2.87099
1 9.39786 6.02102 2.88778
1 1.36917 2.61394 2.08075
1 2.70344 6.49265 1.25415
1 1.7765 5.22852 2.33888
1 0.59726 4.5514 1.4068
1 2.56128 4.48246 3.4435
1 3.91029 5.47902 2.03762
1 4.7496 5.17433 5.25391
1 4.48142 5.0252 3.59615
1 5.62865 6.33797 2.24269
1 5.21806 4.29371 1.53826
1 6.62347 4.6313 2.91739
1 5.47927 4.48568 3.02922
1 6.1409 3.93029 2.24694
1 5.96596 4.23439 0.667365
1 8.87521 4.63217 2.75932
1 6.64472 4.53706 1.48199
1 7.0306 3.25057 2.95497
1 8.65155 4.41951 1.68811
1 9.24561 2.67903 4.35684
1 7.71847 4.74293 1.49147
1 0.61961 2.97773 0.333032
1 9.67227 6.67286 1.65705
1 0.795318 5.19846 2.09856
1 0.504587 6.69174 0.836587
1 1.47948 5.80678 0.352519
1 2.67277 7.01283 2.2749
1 2.48321 8.00447 3.10348
1 1.84195 6.78487 1.67493
1 3.91168 7.44682 2.38608
1 4.95439 8.19381 2.01899
1 3.13789 7.04284 3.3305
1 4.91286 7.76585 3.04737
1 5.23665 5.49661 1.3029
1 6.05315 8.22155 1.90783
1 4.07651 7.9567 3.6216
1 3.72573 0.197383 2.05547
1 7.15782 6.22953 1.37701
1 8.92605 7.93688 3.37412
1 5.27642 6.76888 3.20719
1 6.6047 8.67632 2.92318
1 9.00961 5.46857 2.00356
1 8.81974 6.07415 1.14264
1 9.6271 4.07488 1.72789
1 8.73054 6.47573 2.18914
1 9.58195 9.5986 0.871859
1 0.196118 0.171864 9.78913
1 1.04345 6.00997 1.37807
1 1.46651 8.86547 1.58205
1 3.3955 9.30825 2.34901
1 2.24498 8.9383 2.24622
1 0.640705 8.40433 3.58794
1 1.99236 7.84426 2.03817
1 2.20516 8.23982 1.16319
1 4.47733 0.0898584 1.20401
1 4.06898 9.25663 3.93662
1 3.19785 8.62084 3.71183
1 6.60066 0.324249 1.91725
1 5.61879 9.89586 2.54639
1 4.54958 9.38813 2.13232
1 5.45162 8.83842 2.67385
1 6.88372 8.34298 1.33668
1 6.38985 9.19737 1.94021
1 6.60708 0.0695048 2.92283
1 6.9025 9.59608 9.93174
1 7.93872 5.78572 1.90209
1 8.71521 9.95038 2.34142