864
 Atoms. Timestep: 0
1 9.96341 1.62141 8.59329
1 9.67027 8.56302 10.4257
1 1.36112 3.01817 3.03716
1 0.396974 1.86107 5.43394
1 8.18633 3.62829 8.95003
1 1.05075 0.839325 10.7967
1 1.42769 1.0322 0.873523
1 5.77177 6.75017 11.2593
1 4.00661 4.1255 11.8486
1 8.46533 10.0084 11.151
1 8.49178 1.15082 5.96462
1 1.59572 4.26297 5.73821
1 11.2552 7.34016 4.08761
1 10.3055 10.9189 9.4014
1 5.31173 1.48687 7.33264
1 8.09351 3.78686 4.31999
1 5.37111 0.347731 11.2339
1 4.18559 3.52567 8.91469
1 7.56443 11.9352 2.71933
1 6.96451 5.72971 4.40477
1 5.9251 6.17386 0.920311
1 4.83023 10.3231 11.6989
1 11.6236 11.0314 1.50973
1 2.19445 7.54444 10.0949
1 0.183782 6.24933 7.75661
1 11.4232 5.40269 3.42035
1 9.09205 3.7164 3.71554
1 10.4959 9.38312 11.1416
1 8.90942 2.15696 2.17069
1 11.0645 1.70094 1.78391
1 9.41217 2.43983 0.995763
1 2.11837 1.79979 1.47375
1 11.3872 3.36594 0.960574
1 2.91672 6.77037 4.15237
1 1.41923 2.92946 10.3497
1 1.03239 4.24913 1.5899
1 2.93478 5.56829 3.02988
1 6.01731 10.5096 11.0551
1 3.02526 5.88194 0.216223
1 10.0823 7.35461 8.69472
1 4.5431 4.64277 2.39728
1 11.2018 6.33846 0.0256233
1 10.018 9.12396 0.242393
1 5.37918 1.37398 11.3393
1 10.7993 3.1955 9.93051
1 7.27421 1.18751 0.273632
1 2.16253 9.51105 11.1373
1 11.9516 3.53846 2.64965
1 9.2737 1.80896 10.0254
1 4.75077 3.41451 0.853327
1 5.10127 5.07208 6.13084
1 0.638495 7.73981 0.598614
1 4.64727 5.47303 10.4201
1 3.36776 7.21361 10.1474
1 1.31103 7.08755 11.6778
1 5.81812 2.59264 6.66119
1 7.43584 4.59058 4.14511
1 6.84493 5.75497 0.261535
1 1.86789 2.89351 1.31009
1 0.79215 3.05028 8.69426
1 7.16467 6.54195 3.63971
1 10.1151 0.205856 5.0525
1 6.39547 4.75733 4.21647
1 2.38986 0.818782 1.12603
1 0.15675 11.1723 10.4948
1 4.03657 2.37189 0.542846
1 6.95202 9.37037 3.84344
1 6.01211 2.40853 10.1374
1 6.83122 11.0578 5.21019
1 10.6176 6.78835 7.75244
1 0.157428 6.54093 1.88851
1 0.465892 6.9396 8.81314
1 3.06855 0.883445 11.1572
1 11.3599 11.7949 5.72001
1 2.21933 3.55329 11.795
1 10.9415 6.7821 1.12606
1 0.252555 7.93942 1.51464
1 5.14292 11.3372 11.4144
1 0.874041 2.99002 11.608
1 1.98447 8.46333 9.0656
1 5.24726 2.33229 1.43217
1 5.89118 5.37767 7.89381
1 2.31505 2.55103 11.2601
1 5.19986 6.57643 3.0391
1 6.72137 1.946 9.43733
1 7.57059 4.52053 2.10947
1 8.04366 6.14552 2.64541
1 7.59998 8.63733 10.9583
1 5.79078 2.97556 11.0024
1 9.36267 8.66009 1.63605
1 8.59113 5.1774 2.38146
1 10.6249 3.30602 4.79594
1 10.8043 6.65001 5.25754
1 7.26107 5.73224 1.3092
1 6.2082 6.56842 1.98447
1 8.03433 11.3962 7.20812
1 11.2448 4.56941 0.484404
1 9.54109 11.8437 0.800308
1 0.686366 5.47206 2.54549
1 11.8425 11.7888 9.42327
1 10.3831 6.22712 8.85539
1 0.0573565 4.63251 3.13125
1 5.05941 5.64943 2.65103
1 0.697688 5.07117 9.01537
1 5.30193 9.77355 10.4272
1 6.61825 8.25385 6.01212
1 3.3836 5.3417 5.25873
1 2.19755 0.696732 9.19764
1 8.58794 11.4914 10.6764
1 3.1232 8.89736 0.0172845
1 0.346939 6.20652 11.3608
1 9.61822 6.31212 0.344739
1 9.86434 8.68186 2.81443
1 8.76114 1.86927 3.74813
1 7.49757 8.97935 8.37945
1 2.77882 5.0569 11.0842
1 8.17461 5.45175 4.4642
1 10.8417 11.4987 11.2203
1 5.72334 11.5566 4.50624
1 1.66274 11.5808 11.2069
1 8.63494 0.700015 8.02787
1 11.7303 2.60237 10.4982
1 10.3529 9.27075 1.56229
1 3.76834 5.53456 10.8355
1 4.1508 3.32157 10.0065
1 4.94831 1.68664 9.50993
1 11.2916 6.50165 8.6109
1 9.13135 8.2178 0.335105
1 4.13115 9.12329 3.47782
1 6.55709 6.67063 9.9138
1 7.04747 10.1437 1.37777
1 8.80813 1.49388 8.64327
1 11.8721 7.0576 9.77997
1 7.37588 6.62971 5.25264
1 0.333291 6.20205 3.38239
1 11.4024 7.18931 7.36734
1 11.8099 7.82084 10.6374
1 9.99234 5.67521 3.82697
1 9.58662 8.24026 8.84428
1 7.68215 7.97435 9.99393
1 5.75165 5.1406 0.510129
1 3.31554 4.23922 7.06986
1 8.92814 7.48861 10.1468
1 6.0604 2.57528 3.34596
1 3.14874 1.93901 1.0566
1 10.117 3.5421 3.71565
1 4.28815 4.33527 9.64145
1 6.77137 2.66559 11.0941
1 9.21013 10.364 10.5129
1 11.9419 4.24094 1.83876
1 10.2296 10.1369 10.41
1 10.1444 8.12992 0.956937
1 3.66055 6.71995 1.00602
1 10.8285 10.4736 11.3154
1 8.05558 11.4527 5.24845
1 8.81512 4.24584 1.29551
1 6.26277 0.8718 7.33789
1 0.339468 8.4922 11.2321
1 5.77727 3.66882 2.88244
1 3.74209 11.3373 4.50746
1 11.8991 0.723866 5.81943
1 10.3732 9.46109 8.94199
1 1.40414 0.869882 1.9555
1 9.60647 10.8398 2.42822
1 9.47474 9.3226 11.374
1 10.7743 7.83786 10.115
1 10.15 0.75645 7.87957
1 2.00219 4.14705 3.59798
1 2.10355 7.33711 5.74036
1 5.23084 2.84216 9.52329
1 7.94737 6.96132 9.87165
1 10.3668 1.10351 3.70794
1 8.82618 2.11171 11.2734
1 7.09662 11.1745 1.10115
1 2.79858 4.32938 2.97472
1 5.82739 8.37848 6.92023
1 11.8628 2.37929 2.18125
1 0.926716 1.05585 11.9701
1 8.03293 2.66335 0.564908
1 8.6532 3.1087 1.56265
1 5.259 3.37954 1.7854
1 3.46296 5.0942 0.943202
1 4.79147 1.0379 3.29817
1 5.70841 0.516999 5.8216
1 7.58596 0.307947 4.66847
1 3.26999 3.38915 11.586
1 8.51721 7.50616 7.32432
1 8.29348 6.83768 6.39072
1 7.12689 2.35594 3.63189
1 0.357591 8.85493 3.74443
1 11.6587 9.45941 6.64018
1 5.12285 2.109 0.379078
1 4.47143 11.3618 2.07283
1 4.85808 11.56 0.942032
1 10.4912 9.81848 5.58865
1 7.08746 5.49873 2.28946
1 5.35255 9.92099 0.65173
1 1.82078 5.18922 2.8526
1 4.53798 5.46101 1.73144
1 3.94848 5.63413 2.65305
1 11.0875 2.95995 3.72206
1 9.43587 1.41637 0.0246099
1 2.36287 4.90814 5.17399
1 0.848419 3.95849 2.71357
1 5.98821 11.5292 2.85499
1 6.7009 7.25777 6.1099
1 6.83235 8.05938 7.10231
1 2.3042 6.46791 4.99155
1 5.68858 4.06407 6.02209
1 7.97796 4.40382 5.44714
1 5.80247 5.17542 4.99253
1 4.54123 4.78707 7.10205
1 3.84016 0.455698 4.76178
1 10.3779 5.3286 0.949806
1 9.53591 2.20326 5.48475
1 6.35868 2.60573 1.73463
1 1.34075 1.04565 9.41931
1 0.789435 11.1435 1.5434
1 0.164044 4.82993 9.90968
1 9.31367 7.83381 5.65702
1 1.53142 5.90034 2.00538
1 3.49428 9.60125 10.0546
1 4.76537 0.195098 5.33264
1 8.19944 6.40837 3.96323
1 0.0297487 5.64076 0.0891781
1 4.71518 0.64385 0.0225868
1 6.9957 11.6306 7.11434
1 9.57661 3.74905 7.95547
1 5.96849 6.98768 0.23306
1 6.4893 9.1793 7.55291
1 6.74261 8.32458 0.752331
1 5.38368 8.2551 2.25368
1 5.80481 5.01916 2.98125
1 9.40497 4.73698 3.07026
1 10.1194 5.73728 5.0307
1 11.9405 4.32733 5.68823
1 3.68797 4.17837 3.3215
1 8.46893 4.66394 3.79133
1 2.87841 8.83652 6.72177
1 5.05175 2.98512 3.90479
1 8.33652 3.70582 11.3251
1 6.51762 10.4776 2.3901
1 5.9341 9.03023 4.65279
1 1.81896 10.196 11.9643
1 6.5904 8.9635 11.998
1 10.5672 11.4074 1.62849
1 8.37799 1.46836 0.155755
1 10.8342 4.42877 1.53108
1 11.7054 5.56731 10.752
1 5.3897 0.903693 1.03919
1 2.11826 0.373941 11.6051
1 7.79974 5.49598 10.0474
1 7.26589 3.7371 0.349274
1 4.06185 0.123141 0.599645
1 6.59413 10.5313 4.19368
1 6.77774 11.2174 8.05458
1 9.39792 9.66814 1.30431
1 9.07073 5.86965 4.28132
1 10.3485 3.8238 6.10564
1 5.01624 4.38638 7.99201
1 7.81013 10.1252 7.29428
1 6.52972 5.6746 3.34932
1 10.253 0.168491 2.95087
1 11.1977 11.9707 0.641587
1 0.709009 3.62647 9.70187
1 1.59722 3.98106 0.660557
1 10.3267 8.07136 1.95055
1 6.54563 8.68859 11.0011
1 6.86472 11.9169 5.99235
1 0.968658 1.77938 1.6837
1 11.7332 0.468105 8.16734
1 0.542798 0.449011 2.63546
1 2.08353 11.0555 1.66687
1 1.40608 2.16879 3.61355
1 5.85166 0.25054 3.80338
1 2.14994 1.17625 0.198172
1 8.17299 1.02662 2.37463
1 0.577893 4.10495 10.7613
1 4.87284 6.08693 5.10556
1 1.42151 1.92164 0.522031
1 9.08742 5.82458 11.3362
1 1.2207 10.3409 2.18419
1 3.11113 7.12464 2.57016
1 11.3404 8.74715 1.62781
1 7.28378 0.081981 0.124547
1 4.642 8.53342 11.1219
1 11.0487 0.276756 6.57073
1 4.00668 11.7534 11.5703
1 7.98303 10.5977 1.37249
1 7.9205 1.82998 3.12833
1 4.8856 8.42698 8.65349
1 2.81273 3.81844 6.35495
1 10.7822 1.68862 2.78742
1 4.97835 0.812608 10.201
1 6.62349 9.83596 4.98634
1 5.54152 5.98158 11.8374
1 11.3247 11.9019 2.69834
1 3.56915 3.84751 2.17325
1 5.22326 11.3181 3.63668
1 5.55619 8.81133 5.92001
1 10.1749 0.253954 9.01764
1 6.37373 3.02945 7.85542
1 11.2536 7.51336 1.91893
1 0.611978 1.12621 4.28337
1 6.56211 3.71754 7.05554
1 3.69599 11.9279 7.42671
1 9.94901 11.9857 6.45467
1 5.77627 11.1804 7.22201
1 11.7788 9.6811 1.68147
1 1.67135 1.06581 3.37098
1 0.138844 2.95057 3.55478
1 4.87319 1.73758 2.40556
1 9.37332 1.28431 1.05924
1 2.17022 11.7535 7.78639
1 0.609265 5.61402 5.47822
1 10.2122 5.64527 7.34328
1 0.1252 0.00223635 4.22772
1 3.82128 2.32297 9.2448
1 4.05062 1.86452 7.53389
1 9.88554 10.5849 3.54452
1 9.33436 0.533235 7.22072
1 2.56192 3.85128 1.32815
1 9.49692 11.5564 7.87095
1 0.362922 2.18991 9.49127
1 9.36971 4.74142 6.71293
1 11.9089 1.09973 2.03478
1 7.51136 8.87875 4.81789
1 7.24156 0.932216 9.74613
1 6.71588 3.32709 2.78545
1 10.6473 6.16034 6.30858
1 3.23019 3.45227 3.9122
1 6.87197 1.53332 4.33316
1 3.50699 8.09228 10.7855
1 1.75425 3.43447 9.24993
1 0.116169 11.192 11.5779
1 9.54215 1.28215 2.68516
1 9.0365 6.09683 1.89549
1 8.32366 3.8086 2.25333
1 3.3079 3.8308 9.20745
1 0.0502115 6.6089 4.32667
1 0.203208 11.425 0.59666
1 6.25367 8.55002 1.84053
1 11.8882 10.6762 5.58201
1 10.4569 6.25555 1.88438
1 6.14384 6.8802 5.16231
1 4.92328 7.04396 3.91385
1 2.80681 4.46117 10.0165
1 8.17986 4.68084 9.06325
1 7.00786 3.1377 4.95955
1 8.27849 3.20905 6.68535
1 5.44865 4.42394 3.83604
1 2.76829 10.4779 0.688155
1 8.82327 2.95345 8.0088
1 5.73213 2.19188 2.44366
1 8.19801 9.57061 1.23613
1 10.6266 5.35374 2.43969
1 7.93821 2.11827 5.32773
1 2.74028 2.87709 9.61586
1 11.864 2.59846 11.671
1 5.00997 2.80083 2.84362
1 1.84814 3.82906 2.19539
1 1.18109 11.4029 3.284
1 0.903945 6.00924 4.64143
1 7.09077 0.691848 3.76878
1 4.45804 10.4629 6.21629
1 6.58768 1.81198 0.970479
1 4.4054 0.484046 1.70662
1 1.2471 7.85585 6.17783
1 5.45761 7.6346 6.1179
1 6.38418 3.51945 3.87343
1 1.68657 4.17512 10.0554
1 6.40334 8.57618 3.47413
1 7.86088 8.83898 6.17541
1 2.6458 2.94827 0.566786
1 7.84929 7.65513 5.71293
1 11.9174 1.35 10.2307
1 4.71974 5.99046 3.69373
1 1.04166 7.78273 10.8855
1 1.72919 9.60755 8.43407
1 6.51383 0.266544 4.77795
1 9.71413 5.08325 1.98747
1 11.7954 6.02209 6.61185
1 9.51967 3.00019 4.63107
1 9.8271 3.92395 1.27558
1 5.5981 10.3766 4.62673
1 6.5522 9.30626 1.23902
1 11.0528 5.1736 9.16797
1 4.01286 2.69401 5.54125
1 5.21213 1.13319 8.65928
1 11.951 0.468694 11.0206
1 3.82574 10.6012 11.7922
1 11.7985 8.02058 7.79309
1 7.94051 11.0189 4.14011
1 2.60574 0.710802 10.3015
1 4.71957 8.79242 5.25191
1 5.79384 10.4096 3.13069
1 11.5934 5.5585 5.69683
1 0.983252 10.632 8.77361
1 7.68032 3.96402 3.23224
1 3.0202 2.10291 5.46098
1 0.713181 5.14676 3.71367
1 8.66298 11.6484 3.1438
1 8.06903 4.23308 6.59073
1 11.0638 9.5482 2.8548
1 2.79097 5.45318 6.06696
1 8.78953 8.76701 5.55237
1 0.358194 11.3114 2.56951
1 4.50379 5.23981 4.42916
1 7.07063 2.44494 6.20859
1 8.27268 9.66472 4.48642
1 3.80771 6.97985 3.42353
1 5.8871 1.53564 3.52464
1 1.46157 10.5184 10.9446
1 1.74233 11.7558 5.1867
1 3.53048 0.866736 5.66198
1 1.40957 0.964468 7.05438
1 1.33933 8.24347 8.18758
1 11.6839 5.45999 2.16584
1 2.03908 9.26485 9.72268
1 4.22457 0.188046 3.26168
1 7.36936 8.36549 1.67845
1 10.5157 2.18874 4.54609
1 7.27651 11.013 6.35499
1 11.9832 7.85083 3.12185
1 4.50623 8.48115 0.736536
1 3.42689 11.0936 8.31804
1 4.77327 4.6024 0.597249
1 9.48851 9.69382 2.42047
1 11.6432 3.90389 10.1698
1 0.860788 11.5532 6.32516
1 8.25162 9.87644 10.1613
1 2.55059 0.992513 4.86695
1 4.43457 2.25359 8.41786
1 9.03956 0.319894 11.9128
1 0.258054 3.22318 5.98215
1 1.2377 11.157 0.0510005
1 10.6046 3.93573 8.63252
1 4.14078 1.8327 11.3557
1 11.3738 3.61328 11.8766
1 6.92699 4.11677 8.91149
1 10.0898 7.06134 6.41101
1 8.73577 3.91096 7.32709
1 0.656078 4.30591 4.89322
1 3.21903 2.89296 10.5695
1 5.51167 11.1431 1.69269
1 11.8857 7.11744 0.937312
1 9.54556 6.67998 4.94433
1 2.3339 2.96498 5.87133
1 6.72493 7.1197 2.81896
1 3.9103 11.8834 5.95731
1 7.72302 7.24278 11.1442
1 7.67829 0.545173 6.55598
1 9.45357 3.32301 6.67882
1 4.05746 3.61858 5.29887
1 3.64685 4.61132 5.90849
1 4.53168 3.36684 7.86293
1 1.6113 5.00266 6.59645
1 3.8184 10.6601 9.32633
1 10.5056 4.96308 5.65133
1 7.37432 2.11242 11.7777
1 3.01388 11.6775 11.0719
1 10.3965 11.6605 7.39627
1 6.6273 7.57502 10.8601
1 10.1489 8.66649 4.22151
1 9.99669 2.03567 1.90315
1 5.23081 9.19124 2.80136
1 7.19933 8.09613 11.794
1 7.87172 2.39035 7.4178
1 9.34096 8.29878 3.67739
1 3.16283 1.26907 8.93854
1 10.216 10.2185 1.81202
1 9.12426 7.43729 1.30979
1 6.03955 11.8528 11.9016
1 10.1891 0.637357 0.57274
1 5.17585 11.8639 8.48418
1 1.6369 11.9986 10.1486
1 11.0043 0.395764 4.16603
1 2.93511 1.10431 3.67465
1 1.01184 6.88815 6.11736
1 4.63765 3.92226 4.36906
1 4.77657 3.84782 6.2792
1 7.63622 6.08635 6.2197
1 0.962179 5.28318 7.947
1 2.62566 3.68826 10.8089
1 8.71068 10.5195 3.17801
1 2.00389 10.9813 6.38242
1 3.38065 6.44906 6.62581
1 0.818986 1.81061 11.3657
1 0.329384 10.3341 3.5246
1 8.57352 6.7061 5.37668
1 7.74086 8.64066 3.65559
1 8.14503 6.2025 10.8674
1 9.22937 6.90267 7.9805
1 6.98097 5.20059 5.42414
1 6.67826 10.6241 9.06832
1 10.5572 1.30173 6.32142
1 7.28101 1.061 7.64374
1 5.41595 0.308485 9.38945
1 4.43181 6.90963 5.65656
1 3.99896 2.77609 2.03037
1 9.06829 5.19663 7.7551
1 3.98076 9.74573 6.94277
1 6.02928 10.3954 5.95887
1 11.5926 2.67865 4.7404
1 3.18913 6.74845 5.63967
1 10.6563 10.9572 2.96151
1 2.12127 4.32509 8.70408
1 1.23692 0.149378 4.15404
1 6.10829 0.315746 8.25179
1 3.05154 10.2878 11.2513
1 7.87611 6.8711 8.23095
1 0.678251 7.51516 7.30849
1 0.980702 5.52735 0.921888
1 8.60588 11.9151 4.38417
1 7.52636 3.91873 10.6537
1 1.71369 11.3989 8.91988
1 3.93702 9.8882 8.30886
1 11.3451 10.917 0.443772
1 3.65668 5.38341 6.89536
1 3.55537 4.36208 4.59287
1 9.72702 6.10119 2.7559
1 7.96745 2.78625 2.80639
1 1.0759 11.1817 9.87238
1 7.65993 5.36794 3.39126
1 0.82777 6.84861 10.3867
1 0.519101 5.20718 6.4204
1 11.8137 5.43312 8.42223
1 11.7994 7.67861 11.8718
1 8.94256 8.42606 9.6476
1 9.86115 9.32187 7.60135
1 2.40392 0.404921 5.75936
1 0.199648 4.87709 11.3252
1 4.24566 2.88619 4.43305
1 9.37035 10.6494 5.71101
1 4.16476 3.17091 3.34947
1 11.1313 2.31422 0.962392
1 10.983 4.96897 6.55865
1 10.3987 7.14199 0.201025
1 6.93227 11.6111 3.8484
1 10.8397 8.15425 8.32872
1 6.59462 4.44999 11.8423
1 9.93063 2.1296 3.53962
1 3.47641 3.49905 8.08986
1 0.997007 9.36724 10.5066
1 0.227584 10.9476 4.35798
1 3.56069 6.94575 7.82156
1 7.33979 5.47985 11.1554
1 2.90227 1.51894 6.49593
1 2.22896 1.73776 8.59119
1 1.28479 11.8103 2.14542
1 5.08756 3.77079 10.1272
1 5.05247 10.9384 9.92466
1 1.60568 2.31173 9.42607
1 10.9701 8.69245 7.2473
1 4.64924 4.94684 3.37984
1 4.10445 0.630432 6.61914
1 11.7314 10.8389 6.66255
1 10.3579 1.19904 5.20654
1 4.97006 2.71234 7.21912
1 11.4021 11.6476 7.4435
1 2.92533 8.55997 9.88009
1 8.83403 0.839247 10.9328
1 7.53912 8.30252 9.04425
1 6.71443 10.229 7.42198
1 6.60989 7.31974 0.902607
1 9.38151 6.84445 3.82111
1 11.4393 8.86213 8.97387
1 7.91163 9.01114 2.43405
1 10.9101 2.42642 5.49815
1 1.9208 10.5399 9.31084
1 6.9338 1.90476 2.59402
1 11.5223 9.82809 0.683654
1 9.42956 1.48869 6.43103
1 11.4789 1.70764 4.41278
1 10.1502 4.44305 7.27814
1 2.87429 10.2995 8.1173
1 7.97003 1.78557 4.31907
1 10.8034 1.98003 7.84243
1 1.3513 6.93775 5.15766
1 1.10272 9.29997 11.5676
1 6.30521 6.31673 6.31237
1 3.49419 1.21618 10.0013
1 4.6131 11.1178 7.91179
1 1.77296 6.2589 10.4978
1 0.936542 0.807571 5.29241
1 5.6018 11.34 5.82551
1 3.6188 8.93665 8.74091
1 4.55787 11.7828 10.3915
1 9.29905 6.21303 6.0359
1 8.63575 9.60075 8.20782
1 5.23779 0.11284 2.556
1 6.60097 1.32258 8.56644
1 7.58012 7.455 6.75325
1 2.05072 0.848152 8.21159
1 7.01575 9.26699 9.36696
1 8.58772 8.72957 10.6048
1 9.14767 4.62822 4.73251
1 3.71157 5.1404 11.9213
1 0.406306 1.15859 8.78686
1 2.64247 11.4862 9.82296
1 5.82994 9.53857 3.5834
1 11.4692 4.50538 3.94917
1 10.9477 3.27619 7.20374
1 7.28808 3.75792 6.08723
1 1.06825 2.07429 8.35881
1 3.39474 2.56839 8.32587
1 5.91838 7.54175 1.56461
1 0.489279 2.20676 4.36324
1 5.83613 11.803 10.4096
1 0.179444 0.118995 1.67414
1 11.163 2.79688 2.6618
1 2.78226 2.62258 4.58367
1 7.51372 6.23039 9.01185
1 8.76068 0.168004 6.23788
1 8.22495 10.7577 5.97161
1 8.31906 5.48687 5.67393
1 4.28637 4.40572 10.7528
1 10.157 8.41365 5.18214
1 3.7883 5.89031 5.93425
1 4.13721 10.5283 10.5975
1 10.2589 11.2828 0.328881
1 8.54708 8.05185 6.43831
1 1.46511 10.8216 7.55769
1 10.9862 11.2781 8.46452
1 7.41515 0.987286 5.73797
1 0.945212 4.26071 8.48109
1 4.25854 0.823027 9.45656
1 9.34448 3.85342 2.16441
1 2.98957 5.0995 8.08377
1 4.68733 6.13074 6.43629
1 1.3976 2.47954 4.99386
1 6.55996 6.43397 8.35928
1 6.8634 4.79275 7.43291
1 6.67075 4.87196 6.33661
1 5.16873 8.5949 3.97183
1 6.95663 10.4899 0.267812
1 5.34205 3.74375 7.19888
1 10.9992 6.08306 4.06651
1 8.09061 5.62504 0.0771693
1 6.17775 2.3811 0.158806
1 9.87858 9.96562 6.557
1 3.6427 0.207613 10.4693
1 8.86784 9.27432 6.80031
1 9.92222 7.82516 7.5299
1 5.95547 0.970823 0.119738
1 6.48781 1.50196 5.73819
1 7.83426 2.64832 10.3392
1 7.49567 3.44361 7.59359
1 3.81158 8.0694 9.61425
1 0.361152 11.8245 5.41498
1 9.42574 10.7395 4.55643
1 5.32951 3.47572 8.4702
1 4.10786 3.21707 6.75055
1 1.67014 1.56457 4.50939
1 2.56924 1.92887 10.0668
1 3.62207 7.00977 9.05361
1 1.87325 8.52413 10.7393
1 7.93052 5.13297 7.7876
1 1.15214 1.85582 10.3541
1 0.995545 5.50325 10.5101
1 6.76242 4.91265 0.988692
1 5.49057 5.91603 7.07529
1 3.64202 3.47853 0.664483
1 3.58799 8.85353 4.70234
1 10.9404 4.90761 8.15073
1 0.524862 4.12942 3.78078
1 5.9138 6.09335 4.13715
1 2.34631 8.08888 7.78555
1 7.46063 7.8357 7.95881
1 5.6171 2.13502 8.20013
1 6.82436 4.64269 10.8494
1 5.7371 7.94806 5.09647
1 11.7307 4.38463 8.69658
1 6.88206 2.12744 7.79521
1 1.90785 3.17361 6.82062
1 11.8765 6.57443 5.46981
1 0.586542 0.32011 9.86919
1 5.97891 8.16283 11.7334
1 1.63949 3.92204 4.75019
1 3.4224 0.749493 1.11184
1 6.66228 5.61038 10.2066
1 7.71834 9.7321 5.36138
1 6.9881 7.74191 4.91649
1 5.21095 9.85422 5.64335
1 2.80139 3.83498 5.29188
1 10.427 10.9577 5.57043
1 8.68747 0.918422 4.96695
1 7.47502 10.681 3.23112
1 11.1585 6.24781 2.94702
1 4.793 3.28453 11.4202
1 5.15505 4.53545 5.30913
1 9.32418 0.730483 3.7952
1 2.91113 9.45383 9.11876
1 2.43326 3.90309 7.7955
1 2.35486 7.4516 9.04391
1 9.7897 8.56642 6.75105
1 3.03214 9.27247 7.91479
1 11.7315 1.71623 11.2217
1 9.91438 1.62431 10.9829
1 8.29914 8.03153 11.6138
1 8.5344 4.2429 10.0965
1 11.1966 2.12186 9.59582
1 4.68169 6.96408 10.1768
1 0.428741 11.3862 7.76143
1 4.35939 11.7066 9.28547
1 10.3486 6.70403 9.73092
1 6.20487 10.1852 9.97271
1 5.98734 2.41454 4.8141
1 8.59356 8.00881 2.12189
1 4.98454 9.1688 6.71486
1 4.25187 9.15861 1.72809
1 5.74361 3.11598 5.79351
1 10.2928 8.32707 11.542
1 9.34256 10.906 6.94513
1 8.90942 3.94023 5.86948
1 3.81505 1.98318 3.66216
1 3.10616 0.120379 8.39146
1 5.66161 10.8144 0.174284
1 1.43785 2.26936 6.07585
1 7.21215 9.84563 10.4679
1 11.4107 3.98143 6.43236
1 1.4304 4.16536 7.36337
1 8.86684 10.8931 11.755
1 3.08269 1.90317 11.0872
1 1.43933 7.09709 9.51397
1 10.4452 3.65749 2.51599
1 1.75961 4.87537 1.3545
1 10.2012 0.554246 11.0567
1 6.46853 8.20527 9.84742
1 9.38627 10.7092 0.843361
1 4.31332 5.86262 0.631145
1 9.16257 7.29389 11.5349
1 4.70504 11.5817 7.00759
1 6.26665 1.08241 10.1017
1 2.38247 6.37671 1.20509
1 8.54182 9.25435 0.126077
1 11.0624 1.30404 0.374727
1 4.7284 6.76267 8.16166
1 7.0632 0.882593 1.48554
1 10.3255 4.63616 4.67211
1 1.54544 10.7152 4.21156
1 11.0314 11.3563 4.14997
1 9.37517 5.17185 0.385513
1 11.0597 0.488539 11.6676
1 5.72437 9.37865 11.5862
1 6.77786 3.30009 10.2211
1 7.61684 1.45122 11.0522
1 11.7613 1.54959 3.28954
1 0.406391 8.8784 8.57336
1 10.3033 3.06061 1.54621
1 1.01526 0.0225279 0.856977
1 0.529679 4.46018 0.287541
1 0.0810307 9.76553 4.91858
1 10.3551 1.39913 9.82752
1 4.3269 1.46216 4.80224
1 3.8318 1.27934 0.2936
1 1.9431 1.39477 10.8246
1 8.85009 8.35656 8.03165
1 10.1169 4.30931 11.8912
1 5.00068 1.97329 3.93659
1 6.22168 11.8954 1.22
1 3.49449 1.21005 2.82837
1 0.699871 9.44263 2.87141
1 0.248773 8.72276 10.1869
1 9.1313 0.154838 9.00664
1 10.5312 10.6174 7.45705
1 10.371 0.797689 1.92581
1 7.99269 10.3728 0.0964847
1 0.247676 1.85482 0.562111
1 8.46107 7.5672 8.96633
1 6.03052 3.73079 5.03241
1 6.15486 4.34475 8.21654
1 11.8858 3.73147 4.55102
1 2.72765 2.25775 3.52022
1 9.85419 11.0758 11.3494
1 4.67854 6.18684 11.2322
1 7.01089 6.5176 6.95371
1 9.05339 9.42336 9.8714
1 2.00097 5.29126 3.90615
1 4.4125 9.371 11.7849
1 8.63637 5.88855 0.930071
1 6.41528 0.439665 11.2084
1 4.35296 2.19739 10.2456
1 8.11872 0.538175 9.33934
1 7.85766 8.99127 7.26048
1 4.88886 6.86775 0.0967598
1 8.96107 2.88074 2.988
1 6.10287 3.7252 0.530159
1 6.47944 1.64052 11.4055
1 2.2885 6.35521 3.03736
1 4.24095 1.42757 1.2609
1 0.261411 4.7344 7.34074
1 10.2836 1.74524 0.837934
1 10.4425 10.1636 0.376883
1 0.79198 2.95987 2.18014
1 9.6259 2.68451 10.6456
1 10.2198 2.47834 6.98893
1 11.5823 10.2743 7.44317
1 9.85604 7.31338 10.5868
1 4.56677 10.0734 2.38749
1 8.68205 10.2785 9.26632
1 6.17736 9.20135 2.62168
1 6.11704 2.6815 8.89565
1 6.3743 9.28317 6.46302
1 6.81274 4.59817 2.94907
1 6.94776 6.42289 10.9902
1 7.09744 3.37838 1.84127
1 1.51466 5.61533 11.4745
1 2.67053 4.30961 0.359025
1 11.0959 7.42567 9.06994
1 7.72959 7.65129 0.795789
1 0.938621 0.17144 8.81222
1 5.56583 7.58896 10.4428
1 6.15824 7.26677 7.84069
1 8.26212 0.779605 3.47944
1 8.76487 5.72228 3.38249
1 0.814583 10.3378 0.571066
1 2.09874 6.63769 6.5298
1 10.9192 4.43955 3.08206
1 5.57012 9.70002 7.53374
1 8.25345 6.78875 1.88894
1 2.53959 10.0444 10.2684
1 0.635666 2.05263 2.84207
1 2.05207 11.7749 0.597024
1 7.43608 9.53493 11.5004
1 2.00688 5.22337 0.314196
1 6.0122 8.56595 8.43967
1 5.63082 6.45535 9.44201
1 5.24838 7.6726 7.67535
1 1.8106 6.74847 8.28683
1 5.71805 5.64811 10.7173
1 4.30784 0.782382 11.0483
1 9.99122 2.77941 11.9356
1 9.49643 1.67978 4.50004
1 10.79 0.305778 9.88951
1 10.6227 8.84111 10.3134
1 11.7634 5.54648 4.62064
1 9.57238 2.08297 7.6456
1 8.08603 7.77374 4.67327
1 1.73955 5.69026 5.81566
1 3.37324 0.256174 9.43379
1 11.232 6.77617 10.6949
1 10.8199 1.10342 8.83445
1 11.2192 0.457503 1.63895
1 6.06593 5.56664 1.70687
1 3.32977 2.21614 2.60162
1 0.023796 9.50856 11.7104
1 0.0678429 10.0456 10.5755
1 11.4183 5.91228 1.00547
1 2.21185 2.72033 2.3501
1 6.87849 11.4515 2.14265
1 4.4887 11.1657 5.34527
1 5.67503 10.8441 8.22008
1 5.61028 4.32005 11.5356
1 5.55074 9.53377 1.57713
1 8.33504 11.4307 0.450034
1 4.22633 0.414425 8.51053
1 10.156 6.40472 11.3653
1 10.8324 7.44272 3.05738
1 9.82271 10.2258 8.38755
1 9.827 11.8008 10.4076
1 1.3204 4.45546 11.6497
1 1.30401 8.62249 0.484402
1 5.45067 8.54323 0.927954
864
 Atoms. Timestep: 50
1 9.58029 0.660063 8.44705
1 9.82435 8.55918 11.0255
1 1.80428 3.01722 3.22504
1 0.775636 0.61411 5.49286
1 7.78428 3.67549 8.67621
1 1.61072 0.869127 10.1872
1 1.63084 1.57776 1.1774
1 6.05342 5.8974 10.4602
1 3.83696 4.21707 10.9707
1 7.94731 9.84907 0.0499748
1 9.27388 0.979597 5.73065
1 2.29386 4.10737 5.96438
1 10.6998 7.57426 4.38459
1 11.3569 10.3151 9.61191
1 5.17643 0.168851 7.03815
1 7.809 3.07074 4.48681
1 6.00409 0.516454 11.1771
1 4.39336 4.11904 8.82665
1 7.02205 1.2984 2.22977
1 7.2174 5.58705 4.43253
1 5.8621 5.8408 0.785872
1 4.95274 10.5804 0.420846
1 11.7475 11.7681 1.20896
1 2.36809 7.93738 10.1116
1 11.8094 5.4075 7.22137
1 0.000891291 5.67523 2.6971
1 9.2427 3.14701 5.29434
1 10.4478 8.54693 0.223283
1 8.52715 2.22161 3.12056
1 10.5433 1.58292 1.4643
1 9.37408 1.80536 1.23959
1 2.33823 1.57702 2.01206
1 11.1586 4.10569 1.69394
1 3.28879 5.84706 5.03702
1 0.889395 2.57833 11.0921
1 1.22957 3.98729 1.54157
1 4.06527 6.42899 4.37217
1 6.04173 10.4756 11.8366
1 3.36225 5.61498 1.08164
1 10.7598 6.71153 8.46465
1 4.63642 4.04715 2.53914
1 11.2335 7.16849 11.5032
1 9.43428 8.18637 0.15558
1 5.65139 1.59483 11.1294
1 10.208 2.01556 9.71171
1 7.52993 0.442778 0.482771
1 1.62974 9.64091 10.9416
1 11.6967 3.54154 2.63778
1 9.23636 0.438488 9.57243
1 4.86348 4.09348 0.275028
1 5.13805 5.68005 6.16832
1 1.02428 8.36911 0.616158
1 5.96076 5.42784 8.50775
1 3.02004 7.11303 10.1232
1 2.16182 7.04797 11.36
1 6.54087 2.07202 6.57291
1 7.82176 4.62403 4.17738
1 6.6524 5.443 0.180537
1 2.11743 2.51617 1.35987
1 0.0174262 3.41227 8.07384
1 7.55657 6.80087 3.54446
1 9.51965 11.856 4.44354
1 6.29444 4.65046 5.04818
1 1.99593 0.495939 2.74109
1 11.741 11.1904 10.0027
1 3.77897 2.40794 0.522249
1 6.81696 9.50833 3.09678
1 5.73823 2.02898 10.0412
1 6.4866 10.9136 5.5792
1 11.4472 7.191 7.45006
1 11.3008 6.99384 2.0082
1 0.184421 6.92331 8.77822
1 3.12486 0.704046 10.8566
1 10.7121 11.8123 5.32727
1 2.37254 3.58747 11.4986
1 10.1313 6.4903 0.927415
1 11.8067 8.19027 1.41613
1 4.79829 0.0105427 11.5034
1 1.32159 3.65074 11.6129
1 2.17947 8.90152 9.14024
1 4.5418 2.16603 1.61387
1 6.83306 5.42885 8.00935
1 1.93107 2.49788 11.1906
1 5.77576 6.9719 3.67043
1 6.79602 1.83678 9.70297
1 7.86302 4.71292 2.74097
1 7.60196 5.29458 1.92469
1 7.52753 8.22913 11.2657
1 5.70548 2.63178 11.2518
1 8.76412 7.95372 1.00776
1 8.64121 4.64301 2.01087
1 10.1168 3.47914 4.45881
1 10.3928 6.24392 5.9304
1 8.44821 4.80028 0.983546
1 7.1227 6.2362 1.93629
1 7.98446 11.5437 7.12337
1 11.2905 4.77258 0.0343054
1 9.49297 11.8688 0.580579
1 1.01385 5.07992 2.15379
1 11.49 11.9347 9.13308
1 10.166 5.78195 8.33713
1 0.33903 4.25968 2.14283
1 5.19404 5.93727 2.0916
1 0.512661 5.46989 9.21228
1 4.24882 10.2084 11.0213
1 7.10553 9.03314 5.19589
1 3.40457 4.78825 4.83109
1 2.4573 0.632371 8.23259
1 8.31963 11.7613 11.2299
1 3.24865 9.55399 11.7747
1 0.52642 7.51118 11.8582
1 9.33257 7.16218 0.398214
1 9.85274 8.45375 2.09199
1 9.34127 1.67951 3.87213
1 7.7019 9.52664 9.24436
1 2.95262 4.94288 10.7287
1 8.36517 6.51143 4.81981
1 11.2528 11.1878 10.9513
1 5.0569 10.7755 4.4071
1 1.60388 11.821 10.5824
1 7.74305 11.0455 8.17305
1 11.6026 2.26216 10.4176
1 9.76248 9.0183 0.982844
1 4.24379 5.22528 10.7408
1 3.91588 3.71129 10.0824
1 5.17869 2.0393 9.17845
1 11.5816 6.18923 7.9881
1 8.3913 7.58278 0.0436996
1 4.10052 8.75482 2.57976
1 7.72986 6.7985 9.97094
1 7.58723 10.0825 1.4751
1 8.33796 3.08852 8.02333
1 11.5514 6.19764 9.17598
1 7.35018 6.57562 5.08915
1 11.6543 7.61267 2.79083
1 0.872771 7.35548 7.89866
1 0.00103958 7.68504 10.768
1 8.92221 5.60002 4.28555
1 9.91297 7.82586 9.42303
1 7.97955 8.3784 10.2164
1 6.07979 4.7515 0.741018
1 2.11276 3.70778 7.22812
1 8.96878 7.96574 10.6989
1 5.95192 3.5198 1.94056
1 3.38321 2.18754 1.50681
1 9.55022 4.00056 3.64315
1 4.46803 4.90851 9.67884
1 6.76112 3.39524 10.8663
1 9.48823 10.6259 10.5431
1 0.0752476 4.71694 1.30419
1 10.5418 9.32682 11.1527
1 10.0502 7.82686 0.950851
1 3.91851 6.42972 1.22977
1 11.5872 10.5161 11.6744
1 7.68385 11.233 5.2908
1 8.05699 3.05613 0.882527
1 6.29351 1.20318 7.85589
1 0.817539 8.2935 10.8461
1 6.0249 4.33978 2.88487
1 4.15183 11.2494 5.26844
1 11.7214 0.84984 5.73303
1 10.8985 9.5258 8.88036
1 1.2213 1.19099 2.07967
1 9.89455 10.723 2.09698
1 9.52427 9.61845 11.4516
1 10.7465 6.81722 9.57421
1 9.90386 1.41113 7.69423
1 0.719433 5.24613 3.91438
1 1.82604 9.75217 6.00395
1 4.75182 3.4739 9.58377
1 7.92962 7.38137 11.0577
1 10.3522 1.53138 3.68347
1 9.31347 1.59516 9.904
1 8.18143 10.8327 2.02382
1 2.06778 5.51499 2.46126
1 6.62506 8.89162 6.75625
1 11.6809 1.88849 1.41345
1 0.944529 0.443159 11.306
1 7.85915 2.06481 1.09016
1 8.82037 2.66072 1.99842
1 6.03972 3.3444 0.969
1 2.83789 6.43725 1.65463
1 5.23913 0.484988 3.61184
1 5.94752 1.20568 6.71179
1 6.8759 11.7914 4.99337
1 3.51823 3.28495 11.3898
1 8.33812 8.18962 7.57692
1 8.74364 7.4125 6.51789
1 6.79158 2.43506 4.15993
1 11.106 9.53069 3.07357
1 11.6826 9.91104 6.83261
1 4.98438 2.10947 0.107848
1 4.81348 11.6489 2.32681
1 5.15559 0.0435765 0.632049
1 11.0563 9.56668 5.3131
1 6.13487 5.4792 2.29214
1 5.38719 9.5958 0.94082
1 1.12645 5.75111 3.05678
1 4.05171 5.0336 1.86366
1 3.10125 5.40751 2.16738
1 11.3766 3.60475 3.67981
1 9.12431 0.238741 11.5122
1 1.34402 4.1206 5.21672
1 1.30859 4.06711 2.8555
1 6.54656 11.2061 2.55355
1 7.05545 6.82497 6.17975
1 6.59712 8.62406 7.89519
1 1.9204 4.94867 4.53736
1 5.97549 4.84959 6.16008
1 7.14875 4.54054 5.67554
1 5.75527 5.54845 4.89366
1 2.70838 4.52486 6.74512
1 3.97416 11.9051 4.20655
1 10.7711 5.04856 1.07152
1 9.81809 1.85535 5.86969
1 7.06191 3.46565 1.57
1 0.798012 1.25534 9.15801
1 1.02736 10.9443 1.05311
1 0.554787 4.35661 9.80439
1 9.16295 7.80321 5.66252
1 1.68231 6.10622 1.18148
1 3.42952 9.68264 10.5346
1 4.71349 0.0835505 5.64285
1 8.87789 6.42695 3.49198
1 0.191403 3.93557 11.4475
1 4.6627 0.990946 0.0933572
1 6.93165 11.6574 6.39781
1 9.76463 4.77615 8.21943
1 6.32111 6.45766 0.113865
1 6.76772 9.56504 8.59733
1 6.8611 7.4311 1.61487
1 4.88474 7.48429 3.39448
1 5.89147 5.26602 3.49434
1 9.50958 4.74056 2.73059
1 10.4551 6.03715 4.54584
1 10.5724 3.832 5.3418
1 3.98151 5.09801 3.34713
1 8.6809 4.95706 3.45471
1 3.05528 10.2391 7.407
1 5.72649 3.70045 4.0489
1 7.81135 3.28317 11.7356
1 6.94131 10.3358 2.24647
1 6.23561 9.01927 3.9823
1 1.91059 10.2707 11.8039
1 6.35521 9.34727 11.8506
1 10.6221 11.7509 1.55021
1 8.55554 0.990078 0.571708
1 11.4994 4.92916 2.09045
1 0.238399 5.88148 10.6221
1 5.53072 1.18833 1.43366
1 1.99429 1.46444 11.1062
1 7.818 5.72202 10.2858
1 6.98644 4.40769 0.898805
1 3.67936 0.389253 0.990904
1 6.51565 11.0822 3.986
1 6.52918 10.8929 8.05748
1 8.91835 10.0291 0.819831
1 9.38747 7.39243 4.78358
1 9.6973 3.48138 6.14229
1 4.77166 5.16069 8.42933
1 8.0081 9.93339 8.20466
1 6.79689 5.92462 3.26518
1 10.1946 11.8056 2.76303
1 11.0816 0.0181224 0.518437
1 1.25546 3.83807 9.35712
1 1.87113 3.99167 0.633231
1 9.06677 7.57332 3.36287
1 5.1683 8.56759 10.9859
1 6.05155 0.718799 5.69456
1 0.886106 2.35143 1.57791
1 10.9581 0.974653 7.76252
1 11.9035 11.716 3.80284
1 2.00178 10.508 1.12818
1 0.966269 1.86813 3.65283
1 5.81647 11.6658 3.37807
1 1.95538 1.78055 0.217961
1 8.03957 1.62453 1.91039
1 0.946863 3.57369 10.5786
1 4.6002 6.60575 5.82663
1 0.873925 2.9715 0.781517
1 8.76349 6.03268 10.2815
1 1.65581 11.0552 2.59604
1 3.87041 6.38236 2.38332
1 11.2006 9.12355 1.00787
1 7.37732 11.2537 1.22866
1 4.52911 8.02444 0.116732
1 10.6743 1.269 6.7618
1 3.69622 11.7417 10.925
1 8.00969 10.6669 0.774495